<?xml version="1.0" encoding="UTF-8"?>

<!-- generated on 03/01/21 22:07:36 by Eclipse SUMO Version 1.2.0
<configuration xmlns:xsi="http://www.w3.org/2001/XMLSchema-instance" xsi:noNamespaceSchemaLocation="http://sumo.dlr.de/xsd/sumoConfiguration.xsd">

    <input>
        <net-file value="erlangen.net.xml"/>
        <route-files value="density_8vSpeed.rou.xml"/>
        <additional-files value="vtypes.add.xml"/>
    </input>

    <output>
        <vehroute-output value="density_8vSpeed_routes.xml"/>
    </output>

    <time>
        <begin value="0"/>
        <step-length value="0.1"/>
    </time>

    <report>
        <xml-validation value="never"/>
        <xml-validation.net value="never"/>
        <no-step-log value="true"/>
    </report>

    <gui_only>
        <start value="true"/>
        <tracker-interval value="0.1"/>
    </gui_only>

</configuration>
-->

<routes xmlns:xsi="http://www.w3.org/2001/XMLSchema-instance" xsi:noNamespaceSchemaLocation="http://sumo.dlr.de/xsd/routes_file.xsd">
    <vehicle id="vehicle_0" type="DEFAULT_VEHTYPE" depart="2.60" departSpeed="5.00" arrival="27.30">
        <route edges="-319929498#3 -319929498#2"/>
    </vehicle>

    <vehicle id="vehicle_1" type="DEFAULT_VEHTYPE" depart="5.20" departSpeed="5.00" arrival="32.50">
        <route edges="-319929498#3 -319929498#2"/>
    </vehicle>

    <vehicle id="vehicle_2" type="DEFAULT_VEHTYPE" depart="7.80" departSpeed="5.00" arrival="35.40">
        <route edges="-319929498#3 32038440#11"/>
    </vehicle>

    <vehicle id="vehicle_3" type="DEFAULT_VEHTYPE" depart="10.50" departSpeed="5.00" arrival="37.30">
        <route edges="-319929498#3 32038440#11"/>
    </vehicle>

    <vehicle id="vehicle_4" type="DEFAULT_VEHTYPE" depart="13.10" departSpeed="5.00" arrival="40.50">
        <route edges="-319929498#3 32038440#11"/>
    </vehicle>

    <vehicle id="vehicle_5" type="DEFAULT_VEHTYPE" depart="15.70" departSpeed="5.00" arrival="46.00">
        <route edges="-319929498#3 -319929498#2"/>
    </vehicle>

    <vehicle id="vehicle_6" type="DEFAULT_VEHTYPE" depart="18.30" departSpeed="5.00" arrival="47.20">
        <route edges="-319929498#3 32038440#11"/>
    </vehicle>

    <vehicle id="vehicle_7" type="DEFAULT_VEHTYPE" depart="21.00" departSpeed="5.00" arrival="49.80">
        <route edges="-319929498#3 -319929498#2"/>
    </vehicle>

    <vehicle id="vehicle_8" type="DEFAULT_VEHTYPE" depart="23.60" departSpeed="5.00" arrival="52.90">
        <route edges="-319929498#3 32038440#11"/>
    </vehicle>

    <vehicle id="vehicle_10" type="DEFAULT_VEHTYPE" depart="28.80" departSpeed="5.00" arrival="56.50">
        <route edges="-319929498#3 -319929498#2"/>
    </vehicle>

    <vehicle id="vehicle_9" type="DEFAULT_VEHTYPE" depart="26.20" departSpeed="5.00" arrival="57.60">
        <route edges="-319929498#3 32038440#11"/>
    </vehicle>

    <vehicle id="vehicle_11" type="DEFAULT_VEHTYPE" depart="31.50" departSpeed="5.00" arrival="58.30">
        <route edges="-319929498#3 -319929498#2"/>
    </vehicle>

    <vehicle id="vehicle_12" type="DEFAULT_VEHTYPE" depart="34.10" departSpeed="5.00" arrival="61.60">
        <route edges="-319929498#3 32038440#11"/>
    </vehicle>

    <vehicle id="vehicle_13" type="DEFAULT_VEHTYPE" depart="36.70" departSpeed="5.00" arrival="63.40">
        <route edges="-319929498#3 32038440#11"/>
    </vehicle>

    <vehicle id="vehicle_14" type="DEFAULT_VEHTYPE" depart="39.30" departSpeed="5.00" arrival="65.60">
        <route edges="-319929498#3 -319929498#2"/>
    </vehicle>

    <vehicle id="vehicle_15" type="DEFAULT_VEHTYPE" depart="42.00" departSpeed="5.00" arrival="71.60">
        <route edges="-319929498#3 32038440#11"/>
    </vehicle>

    <vehicle id="vehicle_16" type="DEFAULT_VEHTYPE" depart="44.60" departSpeed="5.00" arrival="73.50">
        <route edges="-319929498#3 -319929498#2"/>
    </vehicle>

    <vehicle id="vehicle_17" type="DEFAULT_VEHTYPE" depart="47.20" departSpeed="5.00" arrival="76.40">
        <route edges="-319929498#3 32038440#11"/>
    </vehicle>

    <vehicle id="vehicle_18" type="DEFAULT_VEHTYPE" depart="49.80" departSpeed="5.00" arrival="77.50">
        <route edges="-319929498#3 -319929498#2"/>
    </vehicle>

    <vehicle id="vehicle_19" type="DEFAULT_VEHTYPE" depart="52.50" departSpeed="5.00" arrival="78.90">
        <route edges="-319929498#3 -319929498#2"/>
    </vehicle>

    <vehicle id="vehicle_20" type="DEFAULT_VEHTYPE" depart="55.10" departSpeed="5.00" arrival="82.60">
        <route edges="-319929498#3 32038440#11"/>
    </vehicle>

    <vehicle id="vehicle_21" type="DEFAULT_VEHTYPE" depart="57.70" departSpeed="5.00" arrival="85.60">
        <route edges="-319929498#3 32038440#11"/>
    </vehicle>

    <vehicle id="vehicle_22" type="DEFAULT_VEHTYPE" depart="60.30" departSpeed="5.00" arrival="87.00">
        <route edges="-319929498#3 -319929498#2"/>
    </vehicle>

    <vehicle id="vehicle_23" type="DEFAULT_VEHTYPE" depart="63.00" departSpeed="5.00" arrival="91.50">
        <route edges="-319929498#3 -319929498#2"/>
    </vehicle>

    <vehicle id="vehicle_24" type="DEFAULT_VEHTYPE" depart="65.60" departSpeed="5.00" arrival="98.10">
        <route edges="-319929498#3 32038440#11"/>
    </vehicle>

    <vehicle id="vehicle_25" type="DEFAULT_VEHTYPE" depart="68.20" departSpeed="5.00" arrival="100.10">
        <route edges="-319929498#3 32038440#11"/>
    </vehicle>

    <vehicle id="vehicle_26" type="DEFAULT_VEHTYPE" depart="70.80" departSpeed="5.00" arrival="100.10">
        <route edges="-319929498#3 -319929498#2"/>
    </vehicle>

    <vehicle id="vehicle_27" type="DEFAULT_VEHTYPE" depart="73.50" departSpeed="5.00" arrival="101.70">
        <route edges="-319929498#3 -319929498#2"/>
    </vehicle>

    <vehicle id="vehicle_28" type="DEFAULT_VEHTYPE" depart="76.10" departSpeed="5.00" arrival="103.10">
        <route edges="-319929498#3 -319929498#2"/>
    </vehicle>

    <vehicle id="vehicle_30" type="DEFAULT_VEHTYPE" depart="81.30" departSpeed="5.00" arrival="107.20">
        <route edges="-319929498#3 -319929498#2"/>
    </vehicle>

    <vehicle id="vehicle_29" type="DEFAULT_VEHTYPE" depart="78.70" departSpeed="5.00" arrival="108.00">
        <route edges="-319929498#3 32038440#11"/>
    </vehicle>

    <vehicle id="vehicle_31" type="DEFAULT_VEHTYPE" depart="84.00" departSpeed="5.00" arrival="110.30">
        <route edges="-319929498#3 32038440#11"/>
    </vehicle>

    <vehicle id="vehicle_33" type="DEFAULT_VEHTYPE" depart="89.20" departSpeed="5.00" arrival="114.30">
        <route edges="-319929498#3 -319929498#2"/>
    </vehicle>

    <vehicle id="vehicle_32" type="DEFAULT_VEHTYPE" depart="86.60" departSpeed="5.00" arrival="114.50">
        <route edges="-319929498#3 32038440#11"/>
    </vehicle>

    <vehicle id="vehicle_34" type="DEFAULT_VEHTYPE" depart="91.80" departSpeed="5.00" arrival="117.70">
        <route edges="-319929498#3 -319929498#2"/>
    </vehicle>

    <vehicle id="vehicle_35" type="DEFAULT_VEHTYPE" depart="94.50" departSpeed="5.00" arrival="121.90">
        <route edges="-319929498#3 32038440#11"/>
    </vehicle>

    <vehicle id="vehicle_36" type="DEFAULT_VEHTYPE" depart="97.10" departSpeed="5.00" arrival="123.60">
        <route edges="-319929498#3 -319929498#2"/>
    </vehicle>

    <vehicle id="vehicle_37" type="DEFAULT_VEHTYPE" depart="99.70" departSpeed="5.00" arrival="125.00">
        <route edges="-319929498#3 -319929498#2"/>
    </vehicle>

    <vehicle id="vehicle_38" type="DEFAULT_VEHTYPE" depart="102.30" departSpeed="5.00" arrival="126.60">
        <route edges="-319929498#3 -319929498#2"/>
    </vehicle>

    <vehicle id="vehicle_39" type="DEFAULT_VEHTYPE" depart="105.00" departSpeed="5.00" arrival="135.20">
        <route edges="-319929498#3 32038440#11"/>
    </vehicle>

    <vehicle id="vehicle_40" type="DEFAULT_VEHTYPE" depart="107.60" departSpeed="5.00" arrival="137.00">
        <route edges="-319929498#3 32038440#11"/>
    </vehicle>

    <vehicle id="vehicle_42" type="DEFAULT_VEHTYPE" depart="112.80" departSpeed="5.00" arrival="139.30">
        <route edges="-319929498#3 -319929498#2"/>
    </vehicle>

    <vehicle id="vehicle_41" type="DEFAULT_VEHTYPE" depart="110.20" departSpeed="5.00" arrival="139.50">
        <route edges="-319929498#3 32038440#11"/>
    </vehicle>

    <vehicle id="vehicle_43" type="DEFAULT_VEHTYPE" depart="115.50" departSpeed="5.00" arrival="143.10">
        <route edges="-319929498#3 32038440#11"/>
    </vehicle>

    <vehicle id="vehicle_44" type="DEFAULT_VEHTYPE" depart="118.10" departSpeed="5.00" arrival="145.50">
        <route edges="-319929498#3 32038440#11"/>
    </vehicle>

    <vehicle id="vehicle_45" type="DEFAULT_VEHTYPE" depart="120.70" departSpeed="5.00" arrival="146.10">
        <route edges="-319929498#3 -319929498#2"/>
    </vehicle>

    <vehicle id="vehicle_46" type="DEFAULT_VEHTYPE" depart="123.30" departSpeed="5.00" arrival="149.30">
        <route edges="-319929498#3 -319929498#2"/>
    </vehicle>

    <vehicle id="vehicle_47" type="DEFAULT_VEHTYPE" depart="126.00" departSpeed="5.00" arrival="154.20">
        <route edges="-319929498#3 -319929498#2"/>
    </vehicle>

    <vehicle id="vehicle_48" type="DEFAULT_VEHTYPE" depart="128.60" departSpeed="5.00" arrival="157.60">
        <route edges="-319929498#3 -319929498#2"/>
    </vehicle>

    <vehicle id="vehicle_49" type="DEFAULT_VEHTYPE" depart="131.20" departSpeed="5.00" arrival="160.90">
        <route edges="-319929498#3 -319929498#2"/>
    </vehicle>

    <vehicle id="vehicle_50" type="DEFAULT_VEHTYPE" depart="133.80" departSpeed="5.00" arrival="163.40">
        <route edges="-319929498#3 -319929498#2"/>
    </vehicle>

    <vehicle id="vehicle_51" type="DEFAULT_VEHTYPE" depart="136.50" departSpeed="5.00" arrival="164.90">
        <route edges="-319929498#3 -319929498#2"/>
    </vehicle>

    <vehicle id="vehicle_52" type="DEFAULT_VEHTYPE" depart="139.10" departSpeed="5.00" arrival="167.00">
        <route edges="-319929498#3 32038440#11"/>
    </vehicle>

    <vehicle id="vehicle_53" type="DEFAULT_VEHTYPE" depart="141.70" departSpeed="5.00" arrival="167.20">
        <route edges="-319929498#3 -319929498#2"/>
    </vehicle>

    <vehicle id="vehicle_54" type="DEFAULT_VEHTYPE" depart="144.30" departSpeed="5.00" arrival="171.90">
        <route edges="-319929498#3 32038440#11"/>
    </vehicle>

    <vehicle id="vehicle_55" type="DEFAULT_VEHTYPE" depart="147.00" departSpeed="5.00" arrival="173.20">
        <route edges="-319929498#3 -319929498#2"/>
    </vehicle>

    <vehicle id="vehicle_56" type="DEFAULT_VEHTYPE" depart="149.60" departSpeed="5.00" arrival="178.00">
        <route edges="-319929498#3 -319929498#2"/>
    </vehicle>

    <vehicle id="vehicle_57" type="DEFAULT_VEHTYPE" depart="152.20" departSpeed="5.00" arrival="179.20">
        <route edges="-319929498#3 32038440#11"/>
    </vehicle>

    <vehicle id="vehicle_58" type="DEFAULT_VEHTYPE" depart="154.80" departSpeed="5.00" arrival="181.00">
        <route edges="-319929498#3 -319929498#2"/>
    </vehicle>

    <vehicle id="vehicle_59" type="DEFAULT_VEHTYPE" depart="157.50" departSpeed="5.00" arrival="184.10">
        <route edges="-319929498#3 -319929498#2"/>
    </vehicle>

    <vehicle id="vehicle_60" type="DEFAULT_VEHTYPE" depart="160.10" departSpeed="5.00" arrival="185.50">
        <route edges="-319929498#3 -319929498#2"/>
    </vehicle>

    <vehicle id="vehicle_61" type="DEFAULT_VEHTYPE" depart="162.70" departSpeed="5.00" arrival="187.00">
        <route edges="-319929498#3 -319929498#2"/>
    </vehicle>

    <vehicle id="vehicle_62" type="DEFAULT_VEHTYPE" depart="165.30" departSpeed="5.00" arrival="192.80">
        <route edges="-319929498#3 32038440#11"/>
    </vehicle>

    <vehicle id="vehicle_63" type="DEFAULT_VEHTYPE" depart="168.00" departSpeed="5.00" arrival="196.10">
        <route edges="-319929498#3 32038440#11"/>
    </vehicle>

    <vehicle id="vehicle_64" type="DEFAULT_VEHTYPE" depart="170.60" departSpeed="5.00" arrival="198.00">
        <route edges="-319929498#3 -319929498#2"/>
    </vehicle>

    <vehicle id="vehicle_65" type="DEFAULT_VEHTYPE" depart="173.20" departSpeed="5.00" arrival="203.90">
        <route edges="-319929498#3 32038440#11"/>
    </vehicle>

    <vehicle id="vehicle_66" type="DEFAULT_VEHTYPE" depart="175.80" departSpeed="5.00" arrival="204.40">
        <route edges="-319929498#3 -319929498#2"/>
    </vehicle>

    <vehicle id="vehicle_67" type="DEFAULT_VEHTYPE" depart="178.50" departSpeed="5.00" arrival="208.30">
        <route edges="-319929498#3 32038440#11"/>
    </vehicle>

    <vehicle id="vehicle_68" type="DEFAULT_VEHTYPE" depart="181.10" departSpeed="5.00" arrival="210.10">
        <route edges="-319929498#3 32038440#11"/>
    </vehicle>

    <vehicle id="vehicle_69" type="DEFAULT_VEHTYPE" depart="183.70" departSpeed="5.00" arrival="212.00">
        <route edges="-319929498#3 32038440#11"/>
    </vehicle>

    <vehicle id="vehicle_70" type="DEFAULT_VEHTYPE" depart="186.30" departSpeed="5.00" arrival="212.70">
        <route edges="-319929498#3 -319929498#2"/>
    </vehicle>

    <vehicle id="vehicle_71" type="DEFAULT_VEHTYPE" depart="189.00" departSpeed="5.00" arrival="215.40">
        <route edges="-319929498#3 -319929498#2"/>
    </vehicle>

    <vehicle id="vehicle_72" type="DEFAULT_VEHTYPE" depart="191.60" departSpeed="5.00" arrival="218.80">
        <route edges="-319929498#3 -319929498#2"/>
    </vehicle>

    <vehicle id="vehicle_73" type="DEFAULT_VEHTYPE" depart="194.20" departSpeed="5.00" arrival="220.30">
        <route edges="-319929498#3 -319929498#2"/>
    </vehicle>

    <vehicle id="vehicle_74" type="DEFAULT_VEHTYPE" depart="196.80" departSpeed="5.00" arrival="225.70">
        <route edges="-319929498#3 32038440#11"/>
    </vehicle>

    <vehicle id="vehicle_75" type="DEFAULT_VEHTYPE" depart="199.50" departSpeed="5.00" arrival="228.00">
        <route edges="-319929498#3 32038440#11"/>
    </vehicle>

    <vehicle id="vehicle_76" type="DEFAULT_VEHTYPE" depart="202.10" departSpeed="5.00" arrival="230.10">
        <route edges="-319929498#3 32038440#11"/>
    </vehicle>

    <vehicle id="vehicle_77" type="DEFAULT_VEHTYPE" depart="204.70" departSpeed="5.00" arrival="233.30">
        <route edges="-319929498#3 32038440#11"/>
    </vehicle>

    <vehicle id="vehicle_78" type="DEFAULT_VEHTYPE" depart="207.30" departSpeed="5.00" arrival="235.50">
        <route edges="-319929498#3 32038440#11"/>
    </vehicle>

    <vehicle id="vehicle_79" type="DEFAULT_VEHTYPE" depart="210.00" departSpeed="5.00" arrival="237.40">
        <route edges="-319929498#3 32038440#11"/>
    </vehicle>

    <vehicle id="vehicle_80" type="DEFAULT_VEHTYPE" depart="212.60" departSpeed="5.00" arrival="240.30">
        <route edges="-319929498#3 32038440#11"/>
    </vehicle>

    <vehicle id="vehicle_81" type="DEFAULT_VEHTYPE" depart="215.20" departSpeed="5.00" arrival="243.40">
        <route edges="-319929498#3 32038440#11"/>
    </vehicle>

    <vehicle id="vehicle_82" type="DEFAULT_VEHTYPE" depart="217.80" departSpeed="5.00" arrival="245.80">
        <route edges="-319929498#3 32038440#11"/>
    </vehicle>

    <vehicle id="vehicle_84" type="DEFAULT_VEHTYPE" depart="223.10" departSpeed="5.00" arrival="248.90">
        <route edges="-319929498#3 -319929498#2"/>
    </vehicle>

    <vehicle id="vehicle_83" type="DEFAULT_VEHTYPE" depart="220.50" departSpeed="5.00" arrival="249.20">
        <route edges="-319929498#3 32038440#11"/>
    </vehicle>

    <vehicle id="vehicle_85" type="DEFAULT_VEHTYPE" depart="225.70" departSpeed="5.00" arrival="254.10">
        <route edges="-319929498#3 32038440#11"/>
    </vehicle>

    <vehicle id="vehicle_86" type="DEFAULT_VEHTYPE" depart="228.30" departSpeed="5.00" arrival="256.60">
        <route edges="-319929498#3 32038440#11"/>
    </vehicle>

    <vehicle id="vehicle_87" type="DEFAULT_VEHTYPE" depart="231.00" departSpeed="5.00" arrival="257.10">
        <route edges="-319929498#3 -319929498#2"/>
    </vehicle>

    <vehicle id="vehicle_88" type="DEFAULT_VEHTYPE" depart="233.60" departSpeed="5.00" arrival="261.20">
        <route edges="-319929498#3 32038440#11"/>
    </vehicle>

    <vehicle id="vehicle_89" type="DEFAULT_VEHTYPE" depart="236.20" departSpeed="5.00" arrival="262.10">
        <route edges="-319929498#3 -319929498#2"/>
    </vehicle>

    <vehicle id="vehicle_90" type="DEFAULT_VEHTYPE" depart="238.80" departSpeed="5.00" arrival="264.40">
        <route edges="-319929498#3 -319929498#2"/>
    </vehicle>

    <vehicle id="vehicle_91" type="DEFAULT_VEHTYPE" depart="241.50" departSpeed="5.00" arrival="271.90">
        <route edges="-319929498#3 32038440#11"/>
    </vehicle>

    <vehicle id="vehicle_92" type="DEFAULT_VEHTYPE" depart="244.10" departSpeed="5.00" arrival="276.40">
        <route edges="-319929498#3 32038440#11"/>
    </vehicle>

    <vehicle id="vehicle_93" type="DEFAULT_VEHTYPE" depart="246.70" departSpeed="5.00" arrival="278.30">
        <route edges="-319929498#3 32038440#11"/>
    </vehicle>

    <vehicle id="vehicle_94" type="DEFAULT_VEHTYPE" depart="249.30" departSpeed="5.00" arrival="280.00">
        <route edges="-319929498#3 32038440#11"/>
    </vehicle>

    <vehicle id="vehicle_95" type="DEFAULT_VEHTYPE" depart="252.00" departSpeed="5.00" arrival="281.80">
        <route edges="-319929498#3 32038440#11"/>
    </vehicle>

    <vehicle id="vehicle_96" type="DEFAULT_VEHTYPE" depart="254.60" departSpeed="5.00" arrival="282.00">
        <route edges="-319929498#3 -319929498#2"/>
    </vehicle>

    <vehicle id="vehicle_97" type="DEFAULT_VEHTYPE" depart="257.20" departSpeed="5.00" arrival="285.30">
        <route edges="-319929498#3 -319929498#2"/>
    </vehicle>

    <vehicle id="vehicle_98" type="DEFAULT_VEHTYPE" depart="259.80" departSpeed="5.00" arrival="286.80">
        <route edges="-319929498#3 -319929498#2"/>
    </vehicle>

    <vehicle id="vehicle_99" type="DEFAULT_VEHTYPE" depart="262.50" departSpeed="5.00" arrival="289.00">
        <route edges="-319929498#3 32038440#11"/>
    </vehicle>

    <vehicle id="vehicle_100" type="DEFAULT_VEHTYPE" depart="265.10" departSpeed="5.00" arrival="290.20">
        <route edges="-319929498#3 -319929498#2"/>
    </vehicle>

    <vehicle id="vehicle_101" type="DEFAULT_VEHTYPE" depart="267.70" departSpeed="5.00" arrival="294.50">
        <route edges="-319929498#3 -319929498#2"/>
    </vehicle>

    <vehicle id="vehicle_102" type="DEFAULT_VEHTYPE" depart="270.30" departSpeed="5.00" arrival="298.80">
        <route edges="-319929498#3 32038440#11"/>
    </vehicle>

    <vehicle id="vehicle_103" type="DEFAULT_VEHTYPE" depart="273.00" departSpeed="5.00" arrival="300.10">
        <route edges="-319929498#3 -319929498#2"/>
    </vehicle>

    <vehicle id="vehicle_104" type="DEFAULT_VEHTYPE" depart="275.60" departSpeed="5.00" arrival="306.00">
        <route edges="-319929498#3 32038440#11"/>
    </vehicle>

    <vehicle id="vehicle_105" type="DEFAULT_VEHTYPE" depart="278.20" departSpeed="5.00" arrival="307.70">
        <route edges="-319929498#3 32038440#11"/>
    </vehicle>

    <vehicle id="vehicle_106" type="DEFAULT_VEHTYPE" depart="280.80" departSpeed="5.00" arrival="309.70">
        <route edges="-319929498#3 32038440#11"/>
    </vehicle>

    <vehicle id="vehicle_107" type="DEFAULT_VEHTYPE" depart="283.50" departSpeed="5.00" arrival="310.00">
        <route edges="-319929498#3 -319929498#2"/>
    </vehicle>

    <vehicle id="vehicle_108" type="DEFAULT_VEHTYPE" depart="286.10" departSpeed="5.00" arrival="311.60">
        <route edges="-319929498#3 -319929498#2"/>
    </vehicle>

    <vehicle id="vehicle_109" type="DEFAULT_VEHTYPE" depart="288.70" departSpeed="5.00" arrival="317.40">
        <route edges="-319929498#3 32038440#11"/>
    </vehicle>

    <vehicle id="vehicle_110" type="DEFAULT_VEHTYPE" depart="291.30" departSpeed="5.00" arrival="320.80">
        <route edges="-319929498#3 32038440#11"/>
    </vehicle>

    <vehicle id="vehicle_112" type="DEFAULT_VEHTYPE" depart="296.60" departSpeed="5.00" arrival="324.10">
        <route edges="-319929498#3 -319929498#2"/>
    </vehicle>

    <vehicle id="vehicle_111" type="DEFAULT_VEHTYPE" depart="294.00" departSpeed="5.00" arrival="325.20">
        <route edges="-319929498#3 32038440#11"/>
    </vehicle>

    <vehicle id="vehicle_113" type="DEFAULT_VEHTYPE" depart="299.20" departSpeed="5.00" arrival="326.10">
        <route edges="-319929498#3 -319929498#2"/>
    </vehicle>

    <vehicle id="vehicle_114" type="DEFAULT_VEHTYPE" depart="301.80" departSpeed="5.00" arrival="328.80">
        <route edges="-319929498#3 32038440#11"/>
    </vehicle>

    <vehicle id="vehicle_116" type="DEFAULT_VEHTYPE" depart="307.10" departSpeed="5.00" arrival="333.20">
        <route edges="-319929498#3 -319929498#2"/>
    </vehicle>

    <vehicle id="vehicle_115" type="DEFAULT_VEHTYPE" depart="304.50" departSpeed="5.00" arrival="334.10">
        <route edges="-319929498#3 32038440#11"/>
    </vehicle>

    <vehicle id="vehicle_117" type="DEFAULT_VEHTYPE" depart="309.70" departSpeed="5.00" arrival="335.90">
        <route edges="-319929498#3 -319929498#2"/>
    </vehicle>

    <vehicle id="vehicle_118" type="DEFAULT_VEHTYPE" depart="312.30" departSpeed="5.00" arrival="340.30">
        <route edges="-319929498#3 32038440#11"/>
    </vehicle>

    <vehicle id="vehicle_119" type="DEFAULT_VEHTYPE" depart="315.00" departSpeed="5.00" arrival="342.20">
        <route edges="-319929498#3 32038440#11"/>
    </vehicle>

    <vehicle id="vehicle_120" type="DEFAULT_VEHTYPE" depart="317.60" departSpeed="5.00" arrival="346.80">
        <route edges="-319929498#3 32038440#11"/>
    </vehicle>

    <vehicle id="vehicle_121" type="DEFAULT_VEHTYPE" depart="320.20" departSpeed="5.00" arrival="348.60">
        <route edges="-319929498#3 32038440#11"/>
    </vehicle>

    <vehicle id="vehicle_122" type="DEFAULT_VEHTYPE" depart="322.80" departSpeed="5.00" arrival="350.70">
        <route edges="-319929498#3 32038440#11"/>
    </vehicle>

    <vehicle id="vehicle_123" type="DEFAULT_VEHTYPE" depart="325.50" departSpeed="5.00" arrival="351.70">
        <route edges="-319929498#3 -319929498#2"/>
    </vehicle>

    <vehicle id="vehicle_124" type="DEFAULT_VEHTYPE" depart="328.10" departSpeed="5.00" arrival="353.20">
        <route edges="-319929498#3 -319929498#2"/>
    </vehicle>

    <vehicle id="vehicle_125" type="DEFAULT_VEHTYPE" depart="330.70" departSpeed="5.00" arrival="356.10">
        <route edges="-319929498#3 32038440#11"/>
    </vehicle>

    <vehicle id="vehicle_126" type="DEFAULT_VEHTYPE" depart="333.30" departSpeed="5.00" arrival="358.50">
        <route edges="-319929498#3 -319929498#2"/>
    </vehicle>

    <vehicle id="vehicle_127" type="DEFAULT_VEHTYPE" depart="336.00" departSpeed="5.00" arrival="366.60">
        <route edges="-319929498#3 -319929498#2"/>
    </vehicle>

    <vehicle id="vehicle_128" type="DEFAULT_VEHTYPE" depart="338.60" departSpeed="5.00" arrival="367.10">
        <route edges="-319929498#3 32038440#11"/>
    </vehicle>

    <vehicle id="vehicle_129" type="DEFAULT_VEHTYPE" depart="341.20" departSpeed="5.00" arrival="368.80">
        <route edges="-319929498#3 -319929498#2"/>
    </vehicle>

    <vehicle id="vehicle_130" type="DEFAULT_VEHTYPE" depart="343.80" departSpeed="5.00" arrival="370.30">
        <route edges="-319929498#3 -319929498#2"/>
    </vehicle>

    <vehicle id="vehicle_131" type="DEFAULT_VEHTYPE" depart="346.50" departSpeed="5.00" arrival="373.40">
        <route edges="-319929498#3 32038440#11"/>
    </vehicle>

    <vehicle id="vehicle_132" type="DEFAULT_VEHTYPE" depart="349.10" departSpeed="5.00" arrival="377.70">
        <route edges="-319929498#3 32038440#11"/>
    </vehicle>

    <vehicle id="vehicle_133" type="DEFAULT_VEHTYPE" depart="351.70" departSpeed="5.00" arrival="377.90">
        <route edges="-319929498#3 -319929498#2"/>
    </vehicle>

    <vehicle id="vehicle_134" type="DEFAULT_VEHTYPE" depart="354.30" departSpeed="5.00" arrival="379.30">
        <route edges="-319929498#3 -319929498#2"/>
    </vehicle>

    <vehicle id="vehicle_135" type="DEFAULT_VEHTYPE" depart="357.00" departSpeed="5.00" arrival="384.60">
        <route edges="-319929498#3 32038440#11"/>
    </vehicle>

    <vehicle id="vehicle_136" type="DEFAULT_VEHTYPE" depart="359.60" departSpeed="5.00" arrival="386.40">
        <route edges="-319929498#3 32038440#11"/>
    </vehicle>

    <vehicle id="vehicle_137" type="DEFAULT_VEHTYPE" depart="362.20" departSpeed="5.00" arrival="390.00">
        <route edges="-319929498#3 32038440#11"/>
    </vehicle>

    <vehicle id="vehicle_138" type="DEFAULT_VEHTYPE" depart="364.80" departSpeed="5.00" arrival="391.00">
        <route edges="-319929498#3 -319929498#2"/>
    </vehicle>

    <vehicle id="vehicle_140" type="DEFAULT_VEHTYPE" depart="370.10" departSpeed="5.00" arrival="396.10">
        <route edges="-319929498#3 -319929498#2"/>
    </vehicle>

    <vehicle id="vehicle_139" type="DEFAULT_VEHTYPE" depart="367.50" departSpeed="5.00" arrival="396.40">
        <route edges="-319929498#3 32038440#11"/>
    </vehicle>

    <vehicle id="vehicle_141" type="DEFAULT_VEHTYPE" depart="372.70" departSpeed="5.00" arrival="397.50">
        <route edges="-319929498#3 -319929498#2"/>
    </vehicle>

    <vehicle id="vehicle_142" type="DEFAULT_VEHTYPE" depart="375.30" departSpeed="5.00" arrival="404.60">
        <route edges="-319929498#3 32038440#11"/>
    </vehicle>

    <vehicle id="vehicle_143" type="DEFAULT_VEHTYPE" depart="378.00" departSpeed="5.00" arrival="406.30">
        <route edges="-319929498#3 32038440#11"/>
    </vehicle>

    <vehicle id="vehicle_145" type="DEFAULT_VEHTYPE" depart="383.20" departSpeed="5.00" arrival="413.70">
        <route edges="-319929498#3 32038440#11"/>
    </vehicle>

    <vehicle id="vehicle_144" type="DEFAULT_VEHTYPE" depart="380.60" departSpeed="5.00" arrival="414.60">
        <route edges="-319929498#3 -319929498#2"/>
    </vehicle>

    <vehicle id="vehicle_146" type="DEFAULT_VEHTYPE" depart="385.80" departSpeed="5.00" arrival="416.50">
        <route edges="-319929498#3 -319929498#2"/>
    </vehicle>

    <vehicle id="vehicle_147" type="DEFAULT_VEHTYPE" depart="388.50" departSpeed="5.00" arrival="418.00">
        <route edges="-319929498#3 -319929498#2"/>
    </vehicle>

    <vehicle id="vehicle_148" type="DEFAULT_VEHTYPE" depart="391.10" departSpeed="5.00" arrival="420.60">
        <route edges="-319929498#3 32038440#11"/>
    </vehicle>

    <vehicle id="vehicle_149" type="DEFAULT_VEHTYPE" depart="393.70" departSpeed="5.00" arrival="422.50">
        <route edges="-319929498#3 32038440#11"/>
    </vehicle>

    <vehicle id="vehicle_150" type="DEFAULT_VEHTYPE" depart="396.30" departSpeed="5.00" arrival="425.50">
        <route edges="-319929498#3 32038440#11"/>
    </vehicle>

    <vehicle id="vehicle_151" type="DEFAULT_VEHTYPE" depart="399.00" departSpeed="5.00" arrival="427.50">
        <route edges="-319929498#3 32038440#11"/>
    </vehicle>

    <vehicle id="vehicle_152" type="DEFAULT_VEHTYPE" depart="401.60" departSpeed="5.00" arrival="429.30">
        <route edges="-319929498#3 32038440#11"/>
    </vehicle>

    <vehicle id="vehicle_153" type="DEFAULT_VEHTYPE" depart="404.20" departSpeed="5.00" arrival="431.80">
        <route edges="-319929498#3 -319929498#2"/>
    </vehicle>

    <vehicle id="vehicle_154" type="DEFAULT_VEHTYPE" depart="406.80" departSpeed="5.00" arrival="434.00">
        <route edges="-319929498#3 32038440#11"/>
    </vehicle>

    <vehicle id="vehicle_155" type="DEFAULT_VEHTYPE" depart="409.50" departSpeed="5.00" arrival="436.00">
        <route edges="-319929498#3 32038440#11"/>
    </vehicle>

    <vehicle id="vehicle_156" type="DEFAULT_VEHTYPE" depart="412.10" departSpeed="5.00" arrival="438.00">
        <route edges="-319929498#3 32038440#11"/>
    </vehicle>

    <vehicle id="vehicle_157" type="DEFAULT_VEHTYPE" depart="414.70" departSpeed="5.00" arrival="439.70">
        <route edges="-319929498#3 -319929498#2"/>
    </vehicle>

    <vehicle id="vehicle_158" type="DEFAULT_VEHTYPE" depart="417.30" departSpeed="5.00" arrival="447.20">
        <route edges="-319929498#3 32038440#11"/>
    </vehicle>

    <vehicle id="vehicle_159" type="DEFAULT_VEHTYPE" depart="420.00" departSpeed="5.00" arrival="448.90">
        <route edges="-319929498#3 32038440#11"/>
    </vehicle>

    <vehicle id="vehicle_160" type="DEFAULT_VEHTYPE" depart="422.60" departSpeed="5.00" arrival="451.50">
        <route edges="-319929498#3 -319929498#2"/>
    </vehicle>

    <vehicle id="vehicle_161" type="DEFAULT_VEHTYPE" depart="425.20" departSpeed="5.00" arrival="453.00">
        <route edges="-319929498#3 32038440#11"/>
    </vehicle>

    <vehicle id="vehicle_163" type="DEFAULT_VEHTYPE" depart="430.50" departSpeed="5.00" arrival="456.20">
        <route edges="-319929498#3 -319929498#2"/>
    </vehicle>

    <vehicle id="vehicle_162" type="DEFAULT_VEHTYPE" depart="427.80" departSpeed="5.00" arrival="456.30">
        <route edges="-319929498#3 32038440#11"/>
    </vehicle>

    <vehicle id="vehicle_164" type="DEFAULT_VEHTYPE" depart="433.10" departSpeed="5.00" arrival="460.20">
        <route edges="-319929498#3 32038440#11"/>
    </vehicle>

    <vehicle id="vehicle_165" type="DEFAULT_VEHTYPE" depart="435.70" departSpeed="5.00" arrival="463.70">
        <route edges="-319929498#3 -319929498#2"/>
    </vehicle>

    <vehicle id="vehicle_166" type="DEFAULT_VEHTYPE" depart="438.30" departSpeed="5.00" arrival="465.20">
        <route edges="-319929498#3 -319929498#2"/>
    </vehicle>

    <vehicle id="vehicle_167" type="DEFAULT_VEHTYPE" depart="441.00" departSpeed="5.00" arrival="466.70">
        <route edges="-319929498#3 -319929498#2"/>
    </vehicle>

    <vehicle id="vehicle_168" type="DEFAULT_VEHTYPE" depart="443.60" departSpeed="5.00" arrival="471.90">
        <route edges="-319929498#3 32038440#11"/>
    </vehicle>
