<?xml version="1.0" encoding="UTF-8"?>

<!-- generated on 03/01/21 22:08:37 by Eclipse SUMO Version 1.2.0
<configuration xmlns:xsi="http://www.w3.org/2001/XMLSchema-instance" xsi:noNamespaceSchemaLocation="http://sumo.dlr.de/xsd/sumoConfiguration.xsd">

    <input>
        <net-file value="erlangen.net.xml"/>
        <route-files value="density_11vSpeed.rou.xml"/>
        <additional-files value="vtypes.add.xml"/>
    </input>

    <output>
        <vehroute-output value="density_11vSpeed_routes.xml"/>
    </output>

    <time>
        <begin value="0"/>
        <step-length value="0.1"/>
    </time>

    <report>
        <xml-validation value="never"/>
        <xml-validation.net value="never"/>
        <no-step-log value="true"/>
    </report>

    <gui_only>
        <start value="true"/>
        <tracker-interval value="0.1"/>
    </gui_only>

</configuration>
-->

<routes xmlns:xsi="http://www.w3.org/2001/XMLSchema-instance" xsi:noNamespaceSchemaLocation="http://sumo.dlr.de/xsd/routes_file.xsd">
    <vehicle id="vehicle_0" type="DEFAULT_VEHTYPE" depart="1.90" departSpeed="5.00" arrival="28.60">
        <route edges="-319929498#3 32038440#11"/>
    </vehicle>

    <vehicle id="vehicle_1" type="DEFAULT_VEHTYPE" depart="3.80" departSpeed="5.00" arrival="33.00">
        <route edges="-319929498#3 32038440#11"/>
    </vehicle>

    <vehicle id="vehicle_2" type="DEFAULT_VEHTYPE" depart="5.70" departSpeed="5.00" arrival="34.90">
        <route edges="-319929498#3 32038440#11"/>
    </vehicle>

    <vehicle id="vehicle_3" type="DEFAULT_VEHTYPE" depart="7.60" departSpeed="5.00" arrival="35.00">
        <route edges="-319929498#3 -319929498#2"/>
    </vehicle>

    <vehicle id="vehicle_4" type="DEFAULT_VEHTYPE" depart="9.50" departSpeed="5.00" arrival="36.60">
        <route edges="-319929498#3 -319929498#2"/>
    </vehicle>

    <vehicle id="vehicle_5" type="DEFAULT_VEHTYPE" depart="11.40" departSpeed="5.00" arrival="41.70">
        <route edges="-319929498#3 -319929498#2"/>
    </vehicle>

    <vehicle id="vehicle_6" type="DEFAULT_VEHTYPE" depart="13.30" departSpeed="5.00" arrival="43.20">
        <route edges="-319929498#3 -319929498#2"/>
    </vehicle>

    <vehicle id="vehicle_7" type="DEFAULT_VEHTYPE" depart="15.20" departSpeed="5.00" arrival="44.90">
        <route edges="-319929498#3 -319929498#2"/>
    </vehicle>

    <vehicle id="vehicle_8" type="DEFAULT_VEHTYPE" depart="17.10" departSpeed="5.00" arrival="47.30">
        <route edges="-319929498#3 32038440#11"/>
    </vehicle>

    <vehicle id="vehicle_9" type="DEFAULT_VEHTYPE" depart="19.00" departSpeed="5.00" arrival="49.00">
        <route edges="-319929498#3 -319929498#2"/>
    </vehicle>

    <vehicle id="vehicle_10" type="DEFAULT_VEHTYPE" depart="20.90" departSpeed="5.00" arrival="50.10">
        <route edges="-319929498#3 32038440#11"/>
    </vehicle>

    <vehicle id="vehicle_11" type="DEFAULT_VEHTYPE" depart="22.80" departSpeed="5.00" arrival="52.80">
        <route edges="-319929498#3 32038440#11"/>
    </vehicle>

    <vehicle id="vehicle_12" type="DEFAULT_VEHTYPE" depart="24.70" departSpeed="5.00" arrival="54.70">
        <route edges="-319929498#3 32038440#11"/>
    </vehicle>

    <vehicle id="vehicle_13" type="DEFAULT_VEHTYPE" depart="26.60" departSpeed="5.00" arrival="55.10">
        <route edges="-319929498#3 -319929498#2"/>
    </vehicle>

    <vehicle id="vehicle_14" type="DEFAULT_VEHTYPE" depart="28.50" departSpeed="5.00" arrival="59.00">
        <route edges="-319929498#3 32038440#11"/>
    </vehicle>

    <vehicle id="vehicle_15" type="DEFAULT_VEHTYPE" depart="30.40" departSpeed="5.00" arrival="61.80">
        <route edges="-319929498#3 32038440#11"/>
    </vehicle>

    <vehicle id="vehicle_16" type="DEFAULT_VEHTYPE" depart="32.30" departSpeed="5.00" arrival="64.60">
        <route edges="-319929498#3 32038440#11"/>
    </vehicle>

    <vehicle id="vehicle_17" type="DEFAULT_VEHTYPE" depart="34.20" departSpeed="5.00" arrival="66.50">
        <route edges="-319929498#3 32038440#11"/>
    </vehicle>

    <vehicle id="vehicle_18" type="DEFAULT_VEHTYPE" depart="36.10" departSpeed="5.00" arrival="66.80">
        <route edges="-319929498#3 -319929498#2"/>
    </vehicle>

    <vehicle id="vehicle_19" type="DEFAULT_VEHTYPE" depart="38.00" departSpeed="5.00" arrival="68.30">
        <route edges="-319929498#3 -319929498#2"/>
    </vehicle>

    <vehicle id="vehicle_20" type="DEFAULT_VEHTYPE" depart="39.90" departSpeed="5.00" arrival="70.60">
        <route edges="-319929498#3 32038440#11"/>
    </vehicle>

    <vehicle id="vehicle_21" type="DEFAULT_VEHTYPE" depart="41.80" departSpeed="5.00" arrival="71.50">
        <route edges="-319929498#3 -319929498#2"/>
    </vehicle>

    <vehicle id="vehicle_22" type="DEFAULT_VEHTYPE" depart="43.70" departSpeed="5.00" arrival="74.80">
        <route edges="-319929498#3 32038440#11"/>
    </vehicle>

    <vehicle id="vehicle_23" type="DEFAULT_VEHTYPE" depart="45.60" departSpeed="5.00" arrival="76.40">
        <route edges="-319929498#3 -319929498#2"/>
    </vehicle>

    <vehicle id="vehicle_24" type="DEFAULT_VEHTYPE" depart="47.50" departSpeed="5.00" arrival="78.70">
        <route edges="-319929498#3 -319929498#2"/>
    </vehicle>

    <vehicle id="vehicle_25" type="DEFAULT_VEHTYPE" depart="49.40" departSpeed="5.00" arrival="80.30">
        <route edges="-319929498#3 -319929498#2"/>
    </vehicle>

    <vehicle id="vehicle_26" type="DEFAULT_VEHTYPE" depart="51.30" departSpeed="5.00" arrival="81.80">
        <route edges="-319929498#3 -319929498#2"/>
    </vehicle>

    <vehicle id="vehicle_27" type="DEFAULT_VEHTYPE" depart="53.20" departSpeed="5.00" arrival="83.30">
        <route edges="-319929498#3 -319929498#2"/>
    </vehicle>

    <vehicle id="vehicle_28" type="DEFAULT_VEHTYPE" depart="55.10" departSpeed="5.00" arrival="84.10">
        <route edges="-319929498#3 32038440#11"/>
    </vehicle>

    <vehicle id="vehicle_30" type="DEFAULT_VEHTYPE" depart="58.90" departSpeed="5.00" arrival="87.40">
        <route edges="-319929498#3 -319929498#2"/>
    </vehicle>

    <vehicle id="vehicle_29" type="DEFAULT_VEHTYPE" depart="57.00" departSpeed="5.00" arrival="88.10">
        <route edges="-319929498#3 32038440#11"/>
    </vehicle>

    <vehicle id="vehicle_31" type="DEFAULT_VEHTYPE" depart="60.80" departSpeed="5.00" arrival="88.80">
        <route edges="-319929498#3 -319929498#2"/>
    </vehicle>

    <vehicle id="vehicle_32" type="DEFAULT_VEHTYPE" depart="62.70" departSpeed="5.00" arrival="91.00">
        <route edges="-319929498#3 -319929498#2"/>
    </vehicle>

    <vehicle id="vehicle_33" type="DEFAULT_VEHTYPE" depart="64.60" departSpeed="5.00" arrival="93.10">
        <route edges="-319929498#3 32038440#11"/>
    </vehicle>

    <vehicle id="vehicle_34" type="DEFAULT_VEHTYPE" depart="66.50" departSpeed="5.00" arrival="96.60">
        <route edges="-319929498#3 32038440#11"/>
    </vehicle>

    <vehicle id="vehicle_35" type="DEFAULT_VEHTYPE" depart="68.40" departSpeed="5.00" arrival="97.20">
        <route edges="-319929498#3 -319929498#2"/>
    </vehicle>

    <vehicle id="vehicle_36" type="DEFAULT_VEHTYPE" depart="70.30" departSpeed="5.00" arrival="98.90">
        <route edges="-319929498#3 -319929498#2"/>
    </vehicle>

    <vehicle id="vehicle_37" type="DEFAULT_VEHTYPE" depart="72.20" departSpeed="5.00" arrival="100.60">
        <route edges="-319929498#3 32038440#11"/>
    </vehicle>

    <vehicle id="vehicle_38" type="DEFAULT_VEHTYPE" depart="74.10" departSpeed="5.00" arrival="102.10">
        <route edges="-319929498#3 -319929498#2"/>
    </vehicle>

    <vehicle id="vehicle_40" type="DEFAULT_VEHTYPE" depart="77.90" departSpeed="5.00" arrival="106.60">
        <route edges="-319929498#3 -319929498#2"/>
    </vehicle>

    <vehicle id="vehicle_39" type="DEFAULT_VEHTYPE" depart="76.00" departSpeed="5.00" arrival="107.00">
        <route edges="-319929498#3 32038440#11"/>
    </vehicle>

    <vehicle id="vehicle_41" type="DEFAULT_VEHTYPE" depart="79.80" departSpeed="5.00" arrival="110.30">
        <route edges="-319929498#3 32038440#11"/>
    </vehicle>

    <vehicle id="vehicle_42" type="DEFAULT_VEHTYPE" depart="81.70" departSpeed="5.00" arrival="112.10">
        <route edges="-319929498#3 32038440#11"/>
    </vehicle>

    <vehicle id="vehicle_43" type="DEFAULT_VEHTYPE" depart="83.60" departSpeed="5.00" arrival="112.60">
        <route edges="-319929498#3 -319929498#2"/>
    </vehicle>

    <vehicle id="vehicle_44" type="DEFAULT_VEHTYPE" depart="85.50" departSpeed="5.00" arrival="115.40">
        <route edges="-319929498#3 32038440#11"/>
    </vehicle>

    <vehicle id="vehicle_45" type="DEFAULT_VEHTYPE" depart="87.40" departSpeed="5.00" arrival="117.30">
        <route edges="-319929498#3 32038440#11"/>
    </vehicle>

    <vehicle id="vehicle_46" type="DEFAULT_VEHTYPE" depart="89.30" departSpeed="5.00" arrival="118.70">
        <route edges="-319929498#3 -319929498#2"/>
    </vehicle>

    <vehicle id="vehicle_47" type="DEFAULT_VEHTYPE" depart="91.20" departSpeed="5.00" arrival="122.80">
        <route edges="-319929498#3 32038440#11"/>
    </vehicle>

    <vehicle id="vehicle_48" type="DEFAULT_VEHTYPE" depart="93.10" departSpeed="5.00" arrival="125.30">
        <route edges="-319929498#3 32038440#11"/>
    </vehicle>

    <vehicle id="vehicle_49" type="DEFAULT_VEHTYPE" depart="95.00" departSpeed="5.00" arrival="127.90">
        <route edges="-319929498#3 32038440#11"/>
    </vehicle>

    <vehicle id="vehicle_50" type="DEFAULT_VEHTYPE" depart="96.90" departSpeed="5.00" arrival="130.00">
        <route edges="-319929498#3 32038440#11"/>
    </vehicle>

    <vehicle id="vehicle_51" type="DEFAULT_VEHTYPE" depart="98.80" departSpeed="5.00" arrival="131.70">
        <route edges="-319929498#3 32038440#11"/>
    </vehicle>

    <vehicle id="vehicle_52" type="DEFAULT_VEHTYPE" depart="100.70" departSpeed="5.00" arrival="133.60">
        <route edges="-319929498#3 32038440#11"/>
    </vehicle>

    <vehicle id="vehicle_53" type="DEFAULT_VEHTYPE" depart="102.60" departSpeed="5.00" arrival="135.30">
        <route edges="-319929498#3 32038440#11"/>
    </vehicle>

    <vehicle id="vehicle_54" type="DEFAULT_VEHTYPE" depart="104.50" departSpeed="5.00" arrival="135.70">
        <route edges="-319929498#3 -319929498#2"/>
    </vehicle>

    <vehicle id="vehicle_55" type="DEFAULT_VEHTYPE" depart="106.40" departSpeed="5.00" arrival="138.60">
        <route edges="-319929498#3 32038440#11"/>
    </vehicle>

    <vehicle id="vehicle_56" type="DEFAULT_VEHTYPE" depart="108.30" departSpeed="5.00" arrival="140.20">
        <route edges="-319929498#3 -319929498#2"/>
    </vehicle>

    <vehicle id="vehicle_57" type="DEFAULT_VEHTYPE" depart="110.20" departSpeed="5.00" arrival="141.10">
        <route edges="-319929498#3 32038440#11"/>
    </vehicle>

    <vehicle id="vehicle_58" type="DEFAULT_VEHTYPE" depart="112.10" departSpeed="5.00" arrival="142.80">
        <route edges="-319929498#3 -319929498#2"/>
    </vehicle>

    <vehicle id="vehicle_59" type="DEFAULT_VEHTYPE" depart="114.00" departSpeed="5.00" arrival="144.60">
        <route edges="-319929498#3 -319929498#2"/>
    </vehicle>

    <vehicle id="vehicle_60" type="DEFAULT_VEHTYPE" depart="115.90" departSpeed="5.00" arrival="146.00">
        <route edges="-319929498#3 -319929498#2"/>
    </vehicle>

    <vehicle id="vehicle_61" type="DEFAULT_VEHTYPE" depart="117.80" departSpeed="5.00" arrival="148.00">
        <route edges="-319929498#3 32038440#11"/>
    </vehicle>

    <vehicle id="vehicle_62" type="DEFAULT_VEHTYPE" depart="119.70" departSpeed="5.00" arrival="151.00">
        <route edges="-319929498#3 32038440#11"/>
    </vehicle>

    <vehicle id="vehicle_63" type="DEFAULT_VEHTYPE" depart="121.60" departSpeed="5.00" arrival="152.00">
        <route edges="-319929498#3 -319929498#2"/>
    </vehicle>

    <vehicle id="vehicle_64" type="DEFAULT_VEHTYPE" depart="123.50" departSpeed="5.00" arrival="155.60">
        <route edges="-319929498#3 32038440#11"/>
    </vehicle>

    <vehicle id="vehicle_65" type="DEFAULT_VEHTYPE" depart="125.40" departSpeed="5.00" arrival="156.80">
        <route edges="-319929498#3 -319929498#2"/>
    </vehicle>

    <vehicle id="vehicle_66" type="DEFAULT_VEHTYPE" depart="127.30" departSpeed="5.00" arrival="159.80">
        <route edges="-319929498#3 32038440#11"/>
    </vehicle>

    <vehicle id="vehicle_67" type="DEFAULT_VEHTYPE" depart="129.20" departSpeed="5.00" arrival="160.50">
        <route edges="-319929498#3 -319929498#2"/>
    </vehicle>

    <vehicle id="vehicle_68" type="DEFAULT_VEHTYPE" depart="131.10" departSpeed="5.00" arrival="161.90">
        <route edges="-319929498#3 -319929498#2"/>
    </vehicle>

    <vehicle id="vehicle_69" type="DEFAULT_VEHTYPE" depart="133.00" departSpeed="5.00" arrival="163.40">
        <route edges="-319929498#3 -319929498#2"/>
    </vehicle>

    <vehicle id="vehicle_70" type="DEFAULT_VEHTYPE" depart="134.90" departSpeed="5.00" arrival="164.90">
        <route edges="-319929498#3 -319929498#2"/>
    </vehicle>

    <vehicle id="vehicle_71" type="DEFAULT_VEHTYPE" depart="136.80" departSpeed="5.00" arrival="167.80">
        <route edges="-319929498#3 32038440#11"/>
    </vehicle>

    <vehicle id="vehicle_73" type="DEFAULT_VEHTYPE" depart="140.60" departSpeed="5.00" arrival="170.20">
        <route edges="-319929498#3 -319929498#2"/>
    </vehicle>

    <vehicle id="vehicle_72" type="DEFAULT_VEHTYPE" depart="138.70" departSpeed="5.00" arrival="170.30">
        <route edges="-319929498#3 32038440#11"/>
    </vehicle>

    <vehicle id="vehicle_74" type="DEFAULT_VEHTYPE" depart="142.50" departSpeed="5.00" arrival="172.30">
        <route edges="-319929498#3 -319929498#2"/>
    </vehicle>

    <vehicle id="vehicle_75" type="DEFAULT_VEHTYPE" depart="144.40" departSpeed="5.00" arrival="175.30">
        <route edges="-319929498#3 32038440#11"/>
    </vehicle>

    <vehicle id="vehicle_76" type="DEFAULT_VEHTYPE" depart="146.30" departSpeed="5.00" arrival="175.70">
        <route edges="-319929498#3 -319929498#2"/>
    </vehicle>

    <vehicle id="vehicle_77" type="DEFAULT_VEHTYPE" depart="148.20" departSpeed="5.00" arrival="177.50">
        <route edges="-319929498#3 -319929498#2"/>
    </vehicle>

    <vehicle id="vehicle_78" type="DEFAULT_VEHTYPE" depart="150.10" departSpeed="5.00" arrival="179.00">
        <route edges="-319929498#3 -319929498#2"/>
    </vehicle>

    <vehicle id="vehicle_79" type="DEFAULT_VEHTYPE" depart="152.00" departSpeed="5.00" arrival="181.20">
        <route edges="-319929498#3 32038440#11"/>
    </vehicle>

    <vehicle id="vehicle_80" type="DEFAULT_VEHTYPE" depart="153.90" departSpeed="5.00" arrival="183.90">
        <route edges="-319929498#3 32038440#11"/>
    </vehicle>

    <vehicle id="vehicle_81" type="DEFAULT_VEHTYPE" depart="155.80" departSpeed="5.00" arrival="185.00">
        <route edges="-319929498#3 -319929498#2"/>
    </vehicle>

    <vehicle id="vehicle_82" type="DEFAULT_VEHTYPE" depart="157.70" departSpeed="5.00" arrival="187.90">
        <route edges="-319929498#3 32038440#11"/>
    </vehicle>

    <vehicle id="vehicle_83" type="DEFAULT_VEHTYPE" depart="159.60" departSpeed="5.00" arrival="190.50">
        <route edges="-319929498#3 32038440#11"/>
    </vehicle>

    <vehicle id="vehicle_84" type="DEFAULT_VEHTYPE" depart="161.50" departSpeed="5.00" arrival="192.20">
        <route edges="-319929498#3 32038440#11"/>
    </vehicle>

    <vehicle id="vehicle_85" type="DEFAULT_VEHTYPE" depart="163.40" departSpeed="5.00" arrival="193.20">
        <route edges="-319929498#3 -319929498#2"/>
    </vehicle>

    <vehicle id="vehicle_86" type="DEFAULT_VEHTYPE" depart="165.30" departSpeed="5.00" arrival="194.70">
        <route edges="-319929498#3 -319929498#2"/>
    </vehicle>

    <vehicle id="vehicle_87" type="DEFAULT_VEHTYPE" depart="167.20" departSpeed="5.00" arrival="196.20">
        <route edges="-319929498#3 -319929498#2"/>
    </vehicle>

    <vehicle id="vehicle_88" type="DEFAULT_VEHTYPE" depart="169.10" departSpeed="5.00" arrival="197.70">
        <route edges="-319929498#3 -319929498#2"/>
    </vehicle>

    <vehicle id="vehicle_89" type="DEFAULT_VEHTYPE" depart="171.00" departSpeed="5.00" arrival="199.20">
        <route edges="-319929498#3 -319929498#2"/>
    </vehicle>

    <vehicle id="vehicle_90" type="DEFAULT_VEHTYPE" depart="172.90" departSpeed="5.00" arrival="202.10">
        <route edges="-319929498#3 32038440#11"/>
    </vehicle>

    <vehicle id="vehicle_91" type="DEFAULT_VEHTYPE" depart="174.80" departSpeed="5.00" arrival="205.80">
        <route edges="-319929498#3 32038440#11"/>
    </vehicle>

    <vehicle id="vehicle_92" type="DEFAULT_VEHTYPE" depart="176.70" departSpeed="5.00" arrival="209.20">
        <route edges="-319929498#3 32038440#11"/>
    </vehicle>

    <vehicle id="vehicle_93" type="DEFAULT_VEHTYPE" depart="178.60" departSpeed="5.00" arrival="211.10">
        <route edges="-319929498#3 32038440#11"/>
    </vehicle>

    <vehicle id="vehicle_95" type="DEFAULT_VEHTYPE" depart="182.40" departSpeed="5.00" arrival="212.30">
        <route edges="-319929498#3 -319929498#2"/>
    </vehicle>

    <vehicle id="vehicle_94" type="DEFAULT_VEHTYPE" depart="180.50" departSpeed="5.00" arrival="212.80">
        <route edges="-319929498#3 32038440#11"/>
    </vehicle>

    <vehicle id="vehicle_96" type="DEFAULT_VEHTYPE" depart="184.30" departSpeed="5.00" arrival="215.40">
        <route edges="-319929498#3 32038440#11"/>
    </vehicle>

    <vehicle id="vehicle_97" type="DEFAULT_VEHTYPE" depart="186.20" departSpeed="5.00" arrival="217.10">
        <route edges="-319929498#3 -319929498#2"/>
    </vehicle>

    <vehicle id="vehicle_98" type="DEFAULT_VEHTYPE" depart="188.10" departSpeed="5.00" arrival="218.30">
        <route edges="-319929498#3 32038440#11"/>
    </vehicle>

    <vehicle id="vehicle_99" type="DEFAULT_VEHTYPE" depart="190.00" departSpeed="5.00" arrival="220.60">
        <route edges="-319929498#3 32038440#11"/>
    </vehicle>

    <vehicle id="vehicle_100" type="DEFAULT_VEHTYPE" depart="191.90" departSpeed="5.00" arrival="222.80">
        <route edges="-319929498#3 32038440#11"/>
    </vehicle>

    <vehicle id="vehicle_101" type="DEFAULT_VEHTYPE" depart="193.80" departSpeed="5.00" arrival="224.40">
        <route edges="-319929498#3 -319929498#2"/>
    </vehicle>

    <vehicle id="vehicle_102" type="DEFAULT_VEHTYPE" depart="195.70" departSpeed="5.00" arrival="227.40">
        <route edges="-319929498#3 32038440#11"/>
    </vehicle>

    <vehicle id="vehicle_103" type="DEFAULT_VEHTYPE" depart="197.60" departSpeed="5.00" arrival="229.70">
        <route edges="-319929498#3 32038440#11"/>
    </vehicle>

    <vehicle id="vehicle_105" type="DEFAULT_VEHTYPE" depart="201.40" departSpeed="5.00" arrival="231.80">
        <route edges="-319929498#3 -319929498#2"/>
    </vehicle>

    <vehicle id="vehicle_104" type="DEFAULT_VEHTYPE" depart="199.50" departSpeed="5.00" arrival="232.50">
        <route edges="-319929498#3 32038440#11"/>
    </vehicle>

    <vehicle id="vehicle_106" type="DEFAULT_VEHTYPE" depart="203.30" departSpeed="5.00" arrival="235.10">
        <route edges="-319929498#3 32038440#11"/>
    </vehicle>

    <vehicle id="vehicle_107" type="DEFAULT_VEHTYPE" depart="205.20" departSpeed="5.00" arrival="235.70">
        <route edges="-319929498#3 -319929498#2"/>
    </vehicle>

    <vehicle id="vehicle_108" type="DEFAULT_VEHTYPE" depart="207.10" departSpeed="5.00" arrival="237.20">
        <route edges="-319929498#3 -319929498#2"/>
    </vehicle>

    <vehicle id="vehicle_109" type="DEFAULT_VEHTYPE" depart="209.00" departSpeed="5.00" arrival="240.90">
        <route edges="-319929498#3 32038440#11"/>
    </vehicle>

    <vehicle id="vehicle_110" type="DEFAULT_VEHTYPE" depart="210.90" departSpeed="5.00" arrival="242.00">
        <route edges="-319929498#3 -319929498#2"/>
    </vehicle>

    <vehicle id="vehicle_111" type="DEFAULT_VEHTYPE" depart="212.80" departSpeed="5.00" arrival="244.10">
        <route edges="-319929498#3 -319929498#2"/>
    </vehicle>

    <vehicle id="vehicle_112" type="DEFAULT_VEHTYPE" depart="214.70" departSpeed="5.00" arrival="245.20">
        <route edges="-319929498#3 32038440#11"/>
    </vehicle>

    <vehicle id="vehicle_113" type="DEFAULT_VEHTYPE" depart="216.60" departSpeed="5.00" arrival="246.60">
        <route edges="-319929498#3 -319929498#2"/>
    </vehicle>

    <vehicle id="vehicle_114" type="DEFAULT_VEHTYPE" depart="218.50" departSpeed="5.00" arrival="248.10">
        <route edges="-319929498#3 -319929498#2"/>
    </vehicle>

    <vehicle id="vehicle_115" type="DEFAULT_VEHTYPE" depart="220.40" departSpeed="5.00" arrival="252.10">
        <route edges="-319929498#3 32038440#11"/>
    </vehicle>

    <vehicle id="vehicle_116" type="DEFAULT_VEHTYPE" depart="222.30" departSpeed="5.00" arrival="253.80">
        <route edges="-319929498#3 32038440#11"/>
    </vehicle>

    <vehicle id="vehicle_117" type="DEFAULT_VEHTYPE" depart="224.20" departSpeed="5.00" arrival="255.90">
        <route edges="-319929498#3 32038440#11"/>
    </vehicle>

    <vehicle id="vehicle_118" type="DEFAULT_VEHTYPE" depart="226.10" departSpeed="5.00" arrival="256.50">
        <route edges="-319929498#3 -319929498#2"/>
    </vehicle>

    <vehicle id="vehicle_119" type="DEFAULT_VEHTYPE" depart="228.00" departSpeed="5.00" arrival="258.80">
        <route edges="-319929498#3 32038440#11"/>
    </vehicle>

    <vehicle id="vehicle_120" type="DEFAULT_VEHTYPE" depart="229.90" departSpeed="5.00" arrival="260.60">
        <route edges="-319929498#3 -319929498#2"/>
    </vehicle>

    <vehicle id="vehicle_121" type="DEFAULT_VEHTYPE" depart="231.80" departSpeed="5.00" arrival="262.00">
        <route edges="-319929498#3 -319929498#2"/>
    </vehicle>

    <vehicle id="vehicle_122" type="DEFAULT_VEHTYPE" depart="233.70" departSpeed="5.00" arrival="263.50">
        <route edges="-319929498#3 -319929498#2"/>
    </vehicle>

    <vehicle id="vehicle_123" type="DEFAULT_VEHTYPE" depart="235.60" departSpeed="5.00" arrival="266.00">
        <route edges="-319929498#3 32038440#11"/>
    </vehicle>

    <vehicle id="vehicle_124" type="DEFAULT_VEHTYPE" depart="237.50" departSpeed="5.00" arrival="266.60">
        <route edges="-319929498#3 -319929498#2"/>
    </vehicle>

    <vehicle id="vehicle_125" type="DEFAULT_VEHTYPE" depart="239.40" departSpeed="5.00" arrival="268.90">
        <route edges="-319929498#3 32038440#11"/>
    </vehicle>

    <vehicle id="vehicle_126" type="DEFAULT_VEHTYPE" depart="241.30" departSpeed="5.00" arrival="270.70">
        <route edges="-319929498#3 -319929498#2"/>
    </vehicle>

    <vehicle id="vehicle_127" type="DEFAULT_VEHTYPE" depart="243.20" departSpeed="5.00" arrival="276.20">
        <route edges="-319929498#3 32038440#11"/>
    </vehicle>

    <vehicle id="vehicle_128" type="DEFAULT_VEHTYPE" depart="245.10" departSpeed="5.00" arrival="277.90">
        <route edges="-319929498#3 32038440#11"/>
    </vehicle>

    <vehicle id="vehicle_130" type="DEFAULT_VEHTYPE" depart="248.90" departSpeed="5.00" arrival="279.40">
        <route edges="-319929498#3 -319929498#2"/>
    </vehicle>

    <vehicle id="vehicle_129" type="DEFAULT_VEHTYPE" depart="247.00" departSpeed="5.00" arrival="279.80">
        <route edges="-319929498#3 32038440#11"/>
    </vehicle>

    <vehicle id="vehicle_131" type="DEFAULT_VEHTYPE" depart="250.80" departSpeed="5.00" arrival="281.80">
        <route edges="-319929498#3 32038440#11"/>
    </vehicle>

    <vehicle id="vehicle_132" type="DEFAULT_VEHTYPE" depart="252.70" departSpeed="5.00" arrival="284.90">
        <route edges="-319929498#3 32038440#11"/>
    </vehicle>

    <vehicle id="vehicle_133" type="DEFAULT_VEHTYPE" depart="254.60" departSpeed="5.00" arrival="286.70">
        <route edges="-319929498#3 32038440#11"/>
    </vehicle>

    <vehicle id="vehicle_134" type="DEFAULT_VEHTYPE" depart="256.50" departSpeed="5.00" arrival="288.40">
        <route edges="-319929498#3 32038440#11"/>
    </vehicle>

    <vehicle id="vehicle_135" type="DEFAULT_VEHTYPE" depart="258.40" departSpeed="5.00" arrival="289.30">
        <route edges="-319929498#3 -319929498#2"/>
    </vehicle>

    <vehicle id="vehicle_136" type="DEFAULT_VEHTYPE" depart="260.30" departSpeed="5.00" arrival="290.70">
        <route edges="-319929498#3 -319929498#2"/>
    </vehicle>

    <vehicle id="vehicle_137" type="DEFAULT_VEHTYPE" depart="262.20" departSpeed="5.00" arrival="292.30">
        <route edges="-319929498#3 -319929498#2"/>
    </vehicle>

    <vehicle id="vehicle_138" type="DEFAULT_VEHTYPE" depart="264.10" departSpeed="5.00" arrival="293.80">
        <route edges="-319929498#3 -319929498#2"/>
    </vehicle>

    <vehicle id="vehicle_139" type="DEFAULT_VEHTYPE" depart="266.00" departSpeed="5.00" arrival="297.40">
        <route edges="-319929498#3 32038440#11"/>
    </vehicle>

    <vehicle id="vehicle_141" type="DEFAULT_VEHTYPE" depart="269.80" departSpeed="5.00" arrival="298.90">
        <route edges="-319929498#3 -319929498#2"/>
    </vehicle>

    <vehicle id="vehicle_140" type="DEFAULT_VEHTYPE" depart="267.90" departSpeed="5.00" arrival="299.10">
        <route edges="-319929498#3 32038440#11"/>
    </vehicle>

    <vehicle id="vehicle_142" type="DEFAULT_VEHTYPE" depart="271.70" departSpeed="5.00" arrival="303.60">
        <route edges="-319929498#3 32038440#11"/>
    </vehicle>

    <vehicle id="vehicle_143" type="DEFAULT_VEHTYPE" depart="273.60" departSpeed="5.00" arrival="305.30">
        <route edges="-319929498#3 32038440#11"/>
    </vehicle>

    <vehicle id="vehicle_145" type="DEFAULT_VEHTYPE" depart="277.40" departSpeed="5.00" arrival="308.50">
        <route edges="-319929498#3 32038440#11"/>
    </vehicle>

    <vehicle id="vehicle_144" type="DEFAULT_VEHTYPE" depart="275.50" departSpeed="5.00" arrival="309.50">
        <route edges="-319929498#3 -319929498#2"/>
    </vehicle>

    <vehicle id="vehicle_146" type="DEFAULT_VEHTYPE" depart="279.30" departSpeed="5.00" arrival="311.40">
        <route edges="-319929498#3 -319929498#2"/>
    </vehicle>

    <vehicle id="vehicle_147" type="DEFAULT_VEHTYPE" depart="281.20" departSpeed="5.00" arrival="313.40">
        <route edges="-319929498#3 32038440#11"/>
    </vehicle>

    <vehicle id="vehicle_148" type="DEFAULT_VEHTYPE" depart="283.10" departSpeed="5.00" arrival="315.80">
        <route edges="-319929498#3 32038440#11"/>
    </vehicle>

    <vehicle id="vehicle_149" type="DEFAULT_VEHTYPE" depart="285.00" departSpeed="5.00" arrival="317.70">
        <route edges="-319929498#3 32038440#11"/>
    </vehicle>

    <vehicle id="vehicle_150" type="DEFAULT_VEHTYPE" depart="286.90" departSpeed="5.00" arrival="320.10">
        <route edges="-319929498#3 32038440#11"/>
    </vehicle>

    <vehicle id="vehicle_151" type="DEFAULT_VEHTYPE" depart="288.80" departSpeed="5.00" arrival="322.00">
        <route edges="-319929498#3 32038440#11"/>
    </vehicle>

    <vehicle id="vehicle_152" type="DEFAULT_VEHTYPE" depart="290.70" departSpeed="5.00" arrival="323.80">
        <route edges="-319929498#3 32038440#11"/>
    </vehicle>

    <vehicle id="vehicle_153" type="DEFAULT_VEHTYPE" depart="292.60" departSpeed="5.00" arrival="325.20">
        <route edges="-319929498#3 -319929498#2"/>
    </vehicle>

    <vehicle id="vehicle_154" type="DEFAULT_VEHTYPE" depart="294.50" departSpeed="5.00" arrival="326.60">
        <route edges="-319929498#3 -319929498#2"/>
    </vehicle>

    <vehicle id="vehicle_155" type="DEFAULT_VEHTYPE" depart="296.40" departSpeed="5.00" arrival="328.10">
        <route edges="-319929498#3 32038440#11"/>
    </vehicle>

    <vehicle id="vehicle_156" type="DEFAULT_VEHTYPE" depart="298.30" departSpeed="5.00" arrival="328.80">
        <route edges="-319929498#3 -319929498#2"/>
    </vehicle>

    <vehicle id="vehicle_157" type="DEFAULT_VEHTYPE" depart="300.20" departSpeed="5.00" arrival="330.60">
        <route edges="-319929498#3 -319929498#2"/>
    </vehicle>

    <vehicle id="vehicle_159" type="DEFAULT_VEHTYPE" depart="304.00" departSpeed="5.00" arrival="334.60">
        <route edges="-319929498#3 -319929498#2"/>
    </vehicle>

    <vehicle id="vehicle_158" type="DEFAULT_VEHTYPE" depart="302.10" departSpeed="5.00" arrival="335.40">
        <route edges="-319929498#3 32038440#11"/>
    </vehicle>

    <vehicle id="vehicle_161" type="DEFAULT_VEHTYPE" depart="307.80" departSpeed="5.00" arrival="338.80">
        <route edges="-319929498#3 -319929498#2"/>
    </vehicle>

    <vehicle id="vehicle_160" type="DEFAULT_VEHTYPE" depart="305.90" departSpeed="5.00" arrival="339.70">
        <route edges="-319929498#3 32038440#11"/>
    </vehicle>

    <vehicle id="vehicle_162" type="DEFAULT_VEHTYPE" depart="309.70" departSpeed="5.00" arrival="342.30">
        <route edges="-319929498#3 32038440#11"/>
    </vehicle>

    <vehicle id="vehicle_163" type="DEFAULT_VEHTYPE" depart="311.60" departSpeed="5.00" arrival="344.00">
        <route edges="-319929498#3 32038440#11"/>
    </vehicle>

    <vehicle id="vehicle_164" type="DEFAULT_VEHTYPE" depart="313.50" departSpeed="5.00" arrival="344.70">
        <route edges="-319929498#3 -319929498#2"/>
    </vehicle>

    <vehicle id="vehicle_165" type="DEFAULT_VEHTYPE" depart="315.40" departSpeed="5.00" arrival="347.20">
        <route edges="-319929498#3 -319929498#2"/>
    </vehicle>

    <vehicle id="vehicle_166" type="DEFAULT_VEHTYPE" depart="317.30" departSpeed="5.00" arrival="348.70">
        <route edges="-319929498#3 -319929498#2"/>
    </vehicle>

    <vehicle id="vehicle_167" type="DEFAULT_VEHTYPE" depart="319.20" departSpeed="5.00" arrival="350.80">
        <route edges="-319929498#3 32038440#11"/>
    </vehicle>

    <vehicle id="vehicle_168" type="DEFAULT_VEHTYPE" depart="321.10" departSpeed="5.00" arrival="353.40">
        <route edges="-319929498#3 32038440#11"/>
    </vehicle>
