<?xml version="1.0" encoding="UTF-8"?>

<!-- generated on 03/01/21 22:11:10 by Eclipse SUMO Version 1.2.0
<configuration xmlns:xsi="http://www.w3.org/2001/XMLSchema-instance" xsi:noNamespaceSchemaLocation="http://sumo.dlr.de/xsd/sumoConfiguration.xsd">

    <input>
        <net-file value="erlangen.net.xml"/>
        <route-files value="density_17vSpeed.rou.xml"/>
        <additional-files value="vtypes.add.xml"/>
    </input>

    <output>
        <vehroute-output value="density_17vSpeed_routes.xml"/>
    </output>

    <time>
        <begin value="0"/>
        <step-length value="0.1"/>
    </time>

    <report>
        <xml-validation value="never"/>
        <xml-validation.net value="never"/>
        <no-step-log value="true"/>
    </report>

    <gui_only>
        <start value="true"/>
        <tracker-interval value="0.1"/>
    </gui_only>

</configuration>
-->

<routes xmlns:xsi="http://www.w3.org/2001/XMLSchema-instance" xsi:noNamespaceSchemaLocation="http://sumo.dlr.de/xsd/routes_file.xsd">
    <vehicle id="vehicle_0" type="DEFAULT_VEHTYPE" depart="1.20" departSpeed="5.00" arrival="27.90">
        <route edges="-319929498#3 32038440#11"/>
    </vehicle>

    <vehicle id="vehicle_1" type="DEFAULT_VEHTYPE" depart="2.60" departSpeed="5.00" arrival="32.00">
        <route edges="-319929498#3 32038440#11"/>
    </vehicle>

    <vehicle id="vehicle_2" type="DEFAULT_VEHTYPE" depart="4.10" departSpeed="5.00" arrival="32.20">
        <route edges="-319929498#3 -319929498#2"/>
    </vehicle>

    <vehicle id="vehicle_3" type="DEFAULT_VEHTYPE" depart="5.50" departSpeed="5.00" arrival="33.70">
        <route edges="-319929498#3 -319929498#2"/>
    </vehicle>

    <vehicle id="vehicle_4" type="DEFAULT_VEHTYPE" depart="6.90" departSpeed="5.00" arrival="36.70">
        <route edges="-319929498#3 32038440#11"/>
    </vehicle>

    <vehicle id="vehicle_5" type="DEFAULT_VEHTYPE" depart="8.30" departSpeed="5.00" arrival="39.40">
        <route edges="-319929498#3 -319929498#2"/>
    </vehicle>

    <vehicle id="vehicle_6" type="DEFAULT_VEHTYPE" depart="9.70" departSpeed="5.00" arrival="40.50">
        <route edges="-319929498#3 32038440#11"/>
    </vehicle>

    <vehicle id="vehicle_7" type="DEFAULT_VEHTYPE" depart="11.10" departSpeed="5.00" arrival="44.30">
        <route edges="-319929498#3 32038440#11"/>
    </vehicle>

    <vehicle id="vehicle_8" type="DEFAULT_VEHTYPE" depart="12.50" departSpeed="5.00" arrival="44.50">
        <route edges="-319929498#3 -319929498#2"/>
    </vehicle>

    <vehicle id="vehicle_10" type="DEFAULT_VEHTYPE" depart="15.50" departSpeed="5.00" arrival="47.40">
        <route edges="-319929498#3 -319929498#2"/>
    </vehicle>

    <vehicle id="vehicle_9" type="DEFAULT_VEHTYPE" depart="14.00" departSpeed="5.00" arrival="48.60">
        <route edges="-319929498#3 32038440#11"/>
    </vehicle>

    <vehicle id="vehicle_11" type="DEFAULT_VEHTYPE" depart="17.00" departSpeed="5.00" arrival="50.60">
        <route edges="-319929498#3 32038440#11"/>
    </vehicle>

    <vehicle id="vehicle_12" type="DEFAULT_VEHTYPE" depart="18.60" departSpeed="5.00" arrival="52.50">
        <route edges="-319929498#3 32038440#11"/>
    </vehicle>

    <vehicle id="vehicle_13" type="DEFAULT_VEHTYPE" depart="20.20" departSpeed="5.00" arrival="54.30">
        <route edges="-319929498#3 32038440#11"/>
    </vehicle>

    <vehicle id="vehicle_14" type="DEFAULT_VEHTYPE" depart="21.80" departSpeed="5.00" arrival="57.00">
        <route edges="-319929498#3 32038440#11"/>
    </vehicle>

    <vehicle id="vehicle_15" type="DEFAULT_VEHTYPE" depart="23.40" departSpeed="5.00" arrival="58.30">
        <route edges="-319929498#3 -319929498#2"/>
    </vehicle>

    <vehicle id="vehicle_16" type="DEFAULT_VEHTYPE" depart="25.10" departSpeed="5.00" arrival="62.00">
        <route edges="-319929498#3 32038440#11"/>
    </vehicle>

    <vehicle id="vehicle_17" type="DEFAULT_VEHTYPE" depart="26.70" departSpeed="5.00" arrival="62.10">
        <route edges="-319929498#3 -319929498#2"/>
    </vehicle>

    <vehicle id="vehicle_18" type="DEFAULT_VEHTYPE" depart="28.40" departSpeed="5.00" arrival="63.70">
        <route edges="-319929498#3 -319929498#2"/>
    </vehicle>

    <vehicle id="vehicle_19" type="DEFAULT_VEHTYPE" depart="30.10" departSpeed="5.00" arrival="64.80">
        <route edges="-319929498#3 32038440#11"/>
    </vehicle>

    <vehicle id="vehicle_20" type="DEFAULT_VEHTYPE" depart="31.80" departSpeed="5.00" arrival="68.00">
        <route edges="-319929498#3 32038440#11"/>
    </vehicle>

    <vehicle id="vehicle_21" type="DEFAULT_VEHTYPE" depart="33.60" departSpeed="5.00" arrival="68.90">
        <route edges="-319929498#3 -319929498#2"/>
    </vehicle>

    <vehicle id="vehicle_22" type="DEFAULT_VEHTYPE" depart="35.40" departSpeed="5.00" arrival="72.20">
        <route edges="-319929498#3 32038440#11"/>
    </vehicle>

    <vehicle id="vehicle_23" type="DEFAULT_VEHTYPE" depart="37.20" departSpeed="5.00" arrival="75.20">
        <route edges="-319929498#3 32038440#11"/>
    </vehicle>

    <vehicle id="vehicle_24" type="DEFAULT_VEHTYPE" depart="39.00" departSpeed="5.00" arrival="76.60">
        <route edges="-319929498#3 -319929498#2"/>
    </vehicle>

    <vehicle id="vehicle_25" type="DEFAULT_VEHTYPE" depart="40.80" departSpeed="5.00" arrival="79.30">
        <route edges="-319929498#3 32038440#11"/>
    </vehicle>

    <vehicle id="vehicle_26" type="DEFAULT_VEHTYPE" depart="42.60" departSpeed="5.00" arrival="79.60">
        <route edges="-319929498#3 -319929498#2"/>
    </vehicle>

    <vehicle id="vehicle_27" type="DEFAULT_VEHTYPE" depart="44.50" departSpeed="5.00" arrival="82.20">
        <route edges="-319929498#3 32038440#11"/>
    </vehicle>

    <vehicle id="vehicle_28" type="DEFAULT_VEHTYPE" depart="46.30" departSpeed="5.00" arrival="84.00">
        <route edges="-319929498#3 32038440#11"/>
    </vehicle>

    <vehicle id="vehicle_29" type="DEFAULT_VEHTYPE" depart="48.20" departSpeed="5.00" arrival="85.20">
        <route edges="-319929498#3 -319929498#2"/>
    </vehicle>

    <vehicle id="vehicle_30" type="DEFAULT_VEHTYPE" depart="50.10" departSpeed="5.00" arrival="86.60">
        <route edges="-319929498#3 -319929498#2"/>
    </vehicle>

    <vehicle id="vehicle_31" type="DEFAULT_VEHTYPE" depart="52.00" departSpeed="5.00" arrival="87.90">
        <route edges="-319929498#3 32038440#11"/>
    </vehicle>

    <vehicle id="vehicle_32" type="DEFAULT_VEHTYPE" depart="53.90" departSpeed="5.00" arrival="89.80">
        <route edges="-319929498#3 -319929498#2"/>
    </vehicle>

    <vehicle id="vehicle_33" type="DEFAULT_VEHTYPE" depart="55.80" departSpeed="5.00" arrival="91.20">
        <route edges="-319929498#3 -319929498#2"/>
    </vehicle>

    <vehicle id="vehicle_34" type="DEFAULT_VEHTYPE" depart="57.70" departSpeed="5.00" arrival="94.40">
        <route edges="-319929498#3 32038440#11"/>
    </vehicle>

    <vehicle id="vehicle_35" type="DEFAULT_VEHTYPE" depart="59.60" departSpeed="5.00" arrival="95.00">
        <route edges="-319929498#3 -319929498#2"/>
    </vehicle>

    <vehicle id="vehicle_36" type="DEFAULT_VEHTYPE" depart="61.50" departSpeed="5.00" arrival="96.70">
        <route edges="-319929498#3 -319929498#2"/>
    </vehicle>

    <vehicle id="vehicle_37" type="DEFAULT_VEHTYPE" depart="63.30" departSpeed="5.00" arrival="98.10">
        <route edges="-319929498#3 -319929498#2"/>
    </vehicle>

    <vehicle id="vehicle_38" type="DEFAULT_VEHTYPE" depart="65.20" departSpeed="5.00" arrival="99.50">
        <route edges="-319929498#3 -319929498#2"/>
    </vehicle>

    <vehicle id="vehicle_39" type="DEFAULT_VEHTYPE" depart="67.10" departSpeed="5.00" arrival="103.80">
        <route edges="-319929498#3 32038440#11"/>
    </vehicle>

    <vehicle id="vehicle_40" type="DEFAULT_VEHTYPE" depart="69.00" departSpeed="5.00" arrival="105.60">
        <route edges="-319929498#3 32038440#11"/>
    </vehicle>

    <vehicle id="vehicle_41" type="DEFAULT_VEHTYPE" depart="71.00" departSpeed="5.00" arrival="106.10">
        <route edges="-319929498#3 -319929498#2"/>
    </vehicle>

    <vehicle id="vehicle_42" type="DEFAULT_VEHTYPE" depart="72.90" departSpeed="5.00" arrival="107.90">
        <route edges="-319929498#3 32038440#11"/>
    </vehicle>

    <vehicle id="vehicle_43" type="DEFAULT_VEHTYPE" depart="74.80" departSpeed="5.00" arrival="110.50">
        <route edges="-319929498#3 32038440#11"/>
    </vehicle>

    <vehicle id="vehicle_44" type="DEFAULT_VEHTYPE" depart="76.70" departSpeed="5.00" arrival="111.20">
        <route edges="-319929498#3 -319929498#2"/>
    </vehicle>

    <vehicle id="vehicle_45" type="DEFAULT_VEHTYPE" depart="78.60" departSpeed="5.00" arrival="112.60">
        <route edges="-319929498#3 -319929498#2"/>
    </vehicle>

    <vehicle id="vehicle_46" type="DEFAULT_VEHTYPE" depart="80.50" departSpeed="5.00" arrival="116.00">
        <route edges="-319929498#3 32038440#11"/>
    </vehicle>

    <vehicle id="vehicle_47" type="DEFAULT_VEHTYPE" depart="82.40" departSpeed="5.00" arrival="117.60">
        <route edges="-319929498#3 -319929498#2"/>
    </vehicle>

    <vehicle id="vehicle_48" type="DEFAULT_VEHTYPE" depart="84.30" departSpeed="5.00" arrival="119.40">
        <route edges="-319929498#3 -319929498#2"/>
    </vehicle>

    <vehicle id="vehicle_49" type="DEFAULT_VEHTYPE" depart="86.10" departSpeed="5.00" arrival="123.10">
        <route edges="-319929498#3 32038440#11"/>
    </vehicle>

    <vehicle id="vehicle_50" type="DEFAULT_VEHTYPE" depart="88.00" departSpeed="5.00" arrival="123.70">
        <route edges="-319929498#3 -319929498#2"/>
    </vehicle>

    <vehicle id="vehicle_51" type="DEFAULT_VEHTYPE" depart="89.80" departSpeed="5.00" arrival="124.80">
        <route edges="-319929498#3 32038440#11"/>
    </vehicle>

    <vehicle id="vehicle_52" type="DEFAULT_VEHTYPE" depart="91.60" departSpeed="5.00" arrival="127.20">
        <route edges="-319929498#3 32038440#11"/>
    </vehicle>

    <vehicle id="vehicle_53" type="DEFAULT_VEHTYPE" depart="93.30" departSpeed="5.00" arrival="129.00">
        <route edges="-319929498#3 32038440#11"/>
    </vehicle>

    <vehicle id="vehicle_54" type="DEFAULT_VEHTYPE" depart="95.20" departSpeed="5.00" arrival="131.40">
        <route edges="-319929498#3 32038440#11"/>
    </vehicle>

    <vehicle id="vehicle_55" type="DEFAULT_VEHTYPE" depart="96.90" departSpeed="5.00" arrival="132.30">
        <route edges="-319929498#3 -319929498#2"/>
    </vehicle>

    <vehicle id="vehicle_56" type="DEFAULT_VEHTYPE" depart="98.80" departSpeed="5.00" arrival="136.20">
        <route edges="-319929498#3 32038440#11"/>
    </vehicle>

    <vehicle id="vehicle_57" type="DEFAULT_VEHTYPE" depart="100.60" departSpeed="5.00" arrival="137.90">
        <route edges="-319929498#3 32038440#11"/>
    </vehicle>

    <vehicle id="vehicle_58" type="DEFAULT_VEHTYPE" depart="102.40" departSpeed="5.00" arrival="138.00">
        <route edges="-319929498#3 -319929498#2"/>
    </vehicle>

    <vehicle id="vehicle_59" type="DEFAULT_VEHTYPE" depart="104.30" departSpeed="5.00" arrival="141.30">
        <route edges="-319929498#3 32038440#11"/>
    </vehicle>

    <vehicle id="vehicle_60" type="DEFAULT_VEHTYPE" depart="106.10" departSpeed="5.00" arrival="141.40">
        <route edges="-319929498#3 -319929498#2"/>
    </vehicle>

    <vehicle id="vehicle_61" type="DEFAULT_VEHTYPE" depart="107.90" departSpeed="5.00" arrival="143.80">
        <route edges="-319929498#3 32038440#11"/>
    </vehicle>

    <vehicle id="vehicle_62" type="DEFAULT_VEHTYPE" depart="109.80" departSpeed="5.00" arrival="145.40">
        <route edges="-319929498#3 -319929498#2"/>
    </vehicle>

    <vehicle id="vehicle_63" type="DEFAULT_VEHTYPE" depart="111.60" departSpeed="5.00" arrival="148.60">
        <route edges="-319929498#3 32038440#11"/>
    </vehicle>

    <vehicle id="vehicle_64" type="DEFAULT_VEHTYPE" depart="113.40" departSpeed="5.00" arrival="149.80">
        <route edges="-319929498#3 -319929498#2"/>
    </vehicle>

    <vehicle id="vehicle_65" type="DEFAULT_VEHTYPE" depart="115.30" departSpeed="5.00" arrival="151.80">
        <route edges="-319929498#3 -319929498#2"/>
    </vehicle>

    <vehicle id="vehicle_66" type="DEFAULT_VEHTYPE" depart="117.10" departSpeed="5.00" arrival="153.30">
        <route edges="-319929498#3 -319929498#2"/>
    </vehicle>

    <vehicle id="vehicle_67" type="DEFAULT_VEHTYPE" depart="119.00" departSpeed="5.00" arrival="154.90">
        <route edges="-319929498#3 -319929498#2"/>
    </vehicle>

    <vehicle id="vehicle_68" type="DEFAULT_VEHTYPE" depart="120.80" departSpeed="5.00" arrival="156.40">
        <route edges="-319929498#3 -319929498#2"/>
    </vehicle>

    <vehicle id="vehicle_69" type="DEFAULT_VEHTYPE" depart="122.70" departSpeed="5.00" arrival="157.80">
        <route edges="-319929498#3 -319929498#2"/>
    </vehicle>

    <vehicle id="vehicle_70" type="DEFAULT_VEHTYPE" depart="124.60" departSpeed="5.00" arrival="159.30">
        <route edges="-319929498#3 -319929498#2"/>
    </vehicle>

    <vehicle id="vehicle_71" type="DEFAULT_VEHTYPE" depart="126.50" departSpeed="5.00" arrival="162.10">
        <route edges="-319929498#3 32038440#11"/>
    </vehicle>

    <vehicle id="vehicle_72" type="DEFAULT_VEHTYPE" depart="128.40" departSpeed="5.00" arrival="164.60">
        <route edges="-319929498#3 32038440#11"/>
    </vehicle>

    <vehicle id="vehicle_73" type="DEFAULT_VEHTYPE" depart="130.30" departSpeed="5.00" arrival="166.40">
        <route edges="-319929498#3 32038440#11"/>
    </vehicle>

    <vehicle id="vehicle_74" type="DEFAULT_VEHTYPE" depart="132.20" departSpeed="5.00" arrival="167.30">
        <route edges="-319929498#3 -319929498#2"/>
    </vehicle>

    <vehicle id="vehicle_75" type="DEFAULT_VEHTYPE" depart="134.10" departSpeed="5.00" arrival="168.80">
        <route edges="-319929498#3 -319929498#2"/>
    </vehicle>

    <vehicle id="vehicle_76" type="DEFAULT_VEHTYPE" depart="136.00" departSpeed="5.00" arrival="171.10">
        <route edges="-319929498#3 32038440#11"/>
    </vehicle>

    <vehicle id="vehicle_77" type="DEFAULT_VEHTYPE" depart="137.90" departSpeed="5.00" arrival="173.70">
        <route edges="-319929498#3 32038440#11"/>
    </vehicle>

    <vehicle id="vehicle_78" type="DEFAULT_VEHTYPE" depart="139.80" departSpeed="5.00" arrival="174.30">
        <route edges="-319929498#3 -319929498#2"/>
    </vehicle>

    <vehicle id="vehicle_79" type="DEFAULT_VEHTYPE" depart="141.70" departSpeed="5.00" arrival="175.80">
        <route edges="-319929498#3 -319929498#2"/>
    </vehicle>

    <vehicle id="vehicle_80" type="DEFAULT_VEHTYPE" depart="143.60" departSpeed="5.00" arrival="178.60">
        <route edges="-319929498#3 32038440#11"/>
    </vehicle>

    <vehicle id="vehicle_81" type="DEFAULT_VEHTYPE" depart="145.40" departSpeed="5.00" arrival="179.60">
        <route edges="-319929498#3 -319929498#2"/>
    </vehicle>

    <vehicle id="vehicle_82" type="DEFAULT_VEHTYPE" depart="147.20" departSpeed="5.00" arrival="181.10">
        <route edges="-319929498#3 -319929498#2"/>
    </vehicle>

    <vehicle id="vehicle_83" type="DEFAULT_VEHTYPE" depart="149.00" departSpeed="5.00" arrival="184.50">
        <route edges="-319929498#3 32038440#11"/>
    </vehicle>

    <vehicle id="vehicle_84" type="DEFAULT_VEHTYPE" depart="150.80" departSpeed="5.00" arrival="186.30">
        <route edges="-319929498#3 32038440#11"/>
    </vehicle>

    <vehicle id="vehicle_85" type="DEFAULT_VEHTYPE" depart="152.50" departSpeed="5.00" arrival="188.60">
        <route edges="-319929498#3 32038440#11"/>
    </vehicle>

    <vehicle id="vehicle_86" type="DEFAULT_VEHTYPE" depart="154.30" departSpeed="5.00" arrival="190.50">
        <route edges="-319929498#3 32038440#11"/>
    </vehicle>

    <vehicle id="vehicle_87" type="DEFAULT_VEHTYPE" depart="156.10" departSpeed="5.00" arrival="192.40">
        <route edges="-319929498#3 32038440#11"/>
    </vehicle>

    <vehicle id="vehicle_88" type="DEFAULT_VEHTYPE" depart="157.90" departSpeed="5.00" arrival="193.20">
        <route edges="-319929498#3 -319929498#2"/>
    </vehicle>

    <vehicle id="vehicle_89" type="DEFAULT_VEHTYPE" depart="159.80" departSpeed="5.00" arrival="196.00">
        <route edges="-319929498#3 32038440#11"/>
    </vehicle>

    <vehicle id="vehicle_90" type="DEFAULT_VEHTYPE" depart="161.60" departSpeed="5.00" arrival="198.00">
        <route edges="-319929498#3 32038440#11"/>
    </vehicle>

    <vehicle id="vehicle_91" type="DEFAULT_VEHTYPE" depart="163.40" departSpeed="5.00" arrival="199.90">
        <route edges="-319929498#3 -319929498#2"/>
    </vehicle>

    <vehicle id="vehicle_92" type="DEFAULT_VEHTYPE" depart="165.30" departSpeed="5.00" arrival="203.90">
        <route edges="-319929498#3 32038440#11"/>
    </vehicle>

    <vehicle id="vehicle_94" type="DEFAULT_VEHTYPE" depart="168.90" departSpeed="5.00" arrival="204.70">
        <route edges="-319929498#3 -319929498#2"/>
    </vehicle>

    <vehicle id="vehicle_93" type="DEFAULT_VEHTYPE" depart="167.10" departSpeed="5.00" arrival="205.80">
        <route edges="-319929498#3 32038440#11"/>
    </vehicle>

    <vehicle id="vehicle_95" type="DEFAULT_VEHTYPE" depart="170.80" departSpeed="5.00" arrival="206.20">
        <route edges="-319929498#3 -319929498#2"/>
    </vehicle>

    <vehicle id="vehicle_96" type="DEFAULT_VEHTYPE" depart="172.60" departSpeed="5.00" arrival="207.80">
        <route edges="-319929498#3 -319929498#2"/>
    </vehicle>

    <vehicle id="vehicle_97" type="DEFAULT_VEHTYPE" depart="174.40" departSpeed="5.00" arrival="210.10">
        <route edges="-319929498#3 -319929498#2"/>
    </vehicle>

    <vehicle id="vehicle_98" type="DEFAULT_VEHTYPE" depart="176.20" departSpeed="5.00" arrival="211.50">
        <route edges="-319929498#3 32038440#11"/>
    </vehicle>

    <vehicle id="vehicle_99" type="DEFAULT_VEHTYPE" depart="178.10" departSpeed="5.00" arrival="212.60">
        <route edges="-319929498#3 -319929498#2"/>
    </vehicle>

    <vehicle id="vehicle_100" type="DEFAULT_VEHTYPE" depart="180.00" departSpeed="5.00" arrival="214.10">
        <route edges="-319929498#3 -319929498#2"/>
    </vehicle>

    <vehicle id="vehicle_101" type="DEFAULT_VEHTYPE" depart="181.80" departSpeed="5.00" arrival="216.40">
        <route edges="-319929498#3 -319929498#2"/>
    </vehicle>

    <vehicle id="vehicle_102" type="DEFAULT_VEHTYPE" depart="183.70" departSpeed="5.00" arrival="217.90">
        <route edges="-319929498#3 -319929498#2"/>
    </vehicle>

    <vehicle id="vehicle_103" type="DEFAULT_VEHTYPE" depart="185.60" departSpeed="5.00" arrival="219.50">
        <route edges="-319929498#3 -319929498#2"/>
    </vehicle>

    <vehicle id="vehicle_104" type="DEFAULT_VEHTYPE" depart="187.50" departSpeed="5.00" arrival="221.50">
        <route edges="-319929498#3 -319929498#2"/>
    </vehicle>

    <vehicle id="vehicle_105" type="DEFAULT_VEHTYPE" depart="189.40" departSpeed="5.00" arrival="223.30">
        <route edges="-319929498#3 32038440#11"/>
    </vehicle>

    <vehicle id="vehicle_106" type="DEFAULT_VEHTYPE" depart="191.30" departSpeed="5.00" arrival="224.60">
        <route edges="-319929498#3 -319929498#2"/>
    </vehicle>

    <vehicle id="vehicle_107" type="DEFAULT_VEHTYPE" depart="193.20" departSpeed="5.00" arrival="227.40">
        <route edges="-319929498#3 32038440#11"/>
    </vehicle>

    <vehicle id="vehicle_108" type="DEFAULT_VEHTYPE" depart="195.10" departSpeed="5.00" arrival="228.00">
        <route edges="-319929498#3 -319929498#2"/>
    </vehicle>

    <vehicle id="vehicle_109" type="DEFAULT_VEHTYPE" depart="197.00" departSpeed="5.00" arrival="230.20">
        <route edges="-319929498#3 -319929498#2"/>
    </vehicle>

    <vehicle id="vehicle_110" type="DEFAULT_VEHTYPE" depart="199.00" departSpeed="5.00" arrival="231.90">
        <route edges="-319929498#3 -319929498#2"/>
    </vehicle>

    <vehicle id="vehicle_111" type="DEFAULT_VEHTYPE" depart="200.80" departSpeed="5.00" arrival="236.10">
        <route edges="-319929498#3 32038440#11"/>
    </vehicle>

    <vehicle id="vehicle_112" type="DEFAULT_VEHTYPE" depart="202.70" departSpeed="5.00" arrival="237.80">
        <route edges="-319929498#3 32038440#11"/>
    </vehicle>

    <vehicle id="vehicle_113" type="DEFAULT_VEHTYPE" depart="204.50" departSpeed="5.00" arrival="239.70">
        <route edges="-319929498#3 32038440#11"/>
    </vehicle>

    <vehicle id="vehicle_114" type="DEFAULT_VEHTYPE" depart="206.40" departSpeed="5.00" arrival="241.50">
        <route edges="-319929498#3 32038440#11"/>
    </vehicle>

    <vehicle id="vehicle_115" type="DEFAULT_VEHTYPE" depart="208.10" departSpeed="5.00" arrival="242.60">
        <route edges="-319929498#3 -319929498#2"/>
    </vehicle>

    <vehicle id="vehicle_116" type="DEFAULT_VEHTYPE" depart="209.90" departSpeed="5.00" arrival="243.40">
        <route edges="-319929498#3 32038440#11"/>
    </vehicle>

    <vehicle id="vehicle_117" type="DEFAULT_VEHTYPE" depart="211.60" departSpeed="5.00" arrival="245.40">
        <route edges="-319929498#3 -319929498#2"/>
    </vehicle>

    <vehicle id="vehicle_118" type="DEFAULT_VEHTYPE" depart="213.30" departSpeed="5.00" arrival="248.60">
        <route edges="-319929498#3 32038440#11"/>
    </vehicle>

    <vehicle id="vehicle_119" type="DEFAULT_VEHTYPE" depart="215.00" departSpeed="5.00" arrival="248.80">
        <route edges="-319929498#3 -319929498#2"/>
    </vehicle>

    <vehicle id="vehicle_120" type="DEFAULT_VEHTYPE" depart="216.70" departSpeed="5.00" arrival="252.90">
        <route edges="-319929498#3 32038440#11"/>
    </vehicle>

    <vehicle id="vehicle_121" type="DEFAULT_VEHTYPE" depart="218.50" departSpeed="5.00" arrival="254.60">
        <route edges="-319929498#3 32038440#11"/>
    </vehicle>

    <vehicle id="vehicle_122" type="DEFAULT_VEHTYPE" depart="220.20" departSpeed="5.00" arrival="256.60">
        <route edges="-319929498#3 32038440#11"/>
    </vehicle>

    <vehicle id="vehicle_123" type="DEFAULT_VEHTYPE" depart="222.00" departSpeed="5.00" arrival="258.50">
        <route edges="-319929498#3 32038440#11"/>
    </vehicle>

    <vehicle id="vehicle_124" type="DEFAULT_VEHTYPE" depart="223.70" departSpeed="5.00" arrival="260.30">
        <route edges="-319929498#3 32038440#11"/>
    </vehicle>

    <vehicle id="vehicle_125" type="DEFAULT_VEHTYPE" depart="225.40" departSpeed="5.00" arrival="260.40">
        <route edges="-319929498#3 -319929498#2"/>
    </vehicle>

    <vehicle id="vehicle_126" type="DEFAULT_VEHTYPE" depart="227.20" departSpeed="5.00" arrival="263.90">
        <route edges="-319929498#3 32038440#11"/>
    </vehicle>

    <vehicle id="vehicle_127" type="DEFAULT_VEHTYPE" depart="229.00" departSpeed="5.00" arrival="266.60">
        <route edges="-319929498#3 -319929498#2"/>
    </vehicle>

    <vehicle id="vehicle_128" type="DEFAULT_VEHTYPE" depart="230.80" departSpeed="5.00" arrival="266.90">
        <route edges="-319929498#3 32038440#11"/>
    </vehicle>

    <vehicle id="vehicle_129" type="DEFAULT_VEHTYPE" depart="232.60" departSpeed="5.00" arrival="268.60">
        <route edges="-319929498#3 -319929498#2"/>
    </vehicle>

    <vehicle id="vehicle_130" type="DEFAULT_VEHTYPE" depart="234.50" departSpeed="5.00" arrival="270.10">
        <route edges="-319929498#3 -319929498#2"/>
    </vehicle>

    <vehicle id="vehicle_131" type="DEFAULT_VEHTYPE" depart="236.40" departSpeed="5.00" arrival="271.60">
        <route edges="-319929498#3 -319929498#2"/>
    </vehicle>

    <vehicle id="vehicle_132" type="DEFAULT_VEHTYPE" depart="238.20" departSpeed="5.00" arrival="273.30">
        <route edges="-319929498#3 -319929498#2"/>
    </vehicle>

    <vehicle id="vehicle_134" type="DEFAULT_VEHTYPE" depart="241.90" departSpeed="5.00" arrival="275.70">
        <route edges="-319929498#3 -319929498#2"/>
    </vehicle>

    <vehicle id="vehicle_133" type="DEFAULT_VEHTYPE" depart="240.10" departSpeed="5.00" arrival="275.80">
        <route edges="-319929498#3 32038440#11"/>
    </vehicle>

    <vehicle id="vehicle_135" type="DEFAULT_VEHTYPE" depart="243.80" departSpeed="5.00" arrival="279.80">
        <route edges="-319929498#3 32038440#11"/>
    </vehicle>

    <vehicle id="vehicle_136" type="DEFAULT_VEHTYPE" depart="245.70" departSpeed="5.00" arrival="280.00">
        <route edges="-319929498#3 -319929498#2"/>
    </vehicle>

    <vehicle id="vehicle_137" type="DEFAULT_VEHTYPE" depart="247.60" departSpeed="5.00" arrival="281.90">
        <route edges="-319929498#3 -319929498#2"/>
    </vehicle>

    <vehicle id="vehicle_138" type="DEFAULT_VEHTYPE" depart="249.50" departSpeed="5.00" arrival="283.50">
        <route edges="-319929498#3 -319929498#2"/>
    </vehicle>

    <vehicle id="vehicle_139" type="DEFAULT_VEHTYPE" depart="251.40" departSpeed="5.00" arrival="285.30">
        <route edges="-319929498#3 -319929498#2"/>
    </vehicle>

    <vehicle id="vehicle_140" type="DEFAULT_VEHTYPE" depart="253.40" departSpeed="5.00" arrival="286.70">
        <route edges="-319929498#3 -319929498#2"/>
    </vehicle>

    <vehicle id="vehicle_141" type="DEFAULT_VEHTYPE" depart="255.30" departSpeed="5.00" arrival="288.10">
        <route edges="-319929498#3 -319929498#2"/>
    </vehicle>

    <vehicle id="vehicle_142" type="DEFAULT_VEHTYPE" depart="257.20" departSpeed="5.00" arrival="291.90">
        <route edges="-319929498#3 32038440#11"/>
    </vehicle>

    <vehicle id="vehicle_143" type="DEFAULT_VEHTYPE" depart="259.10" departSpeed="5.00" arrival="293.60">
        <route edges="-319929498#3 32038440#11"/>
    </vehicle>

    <vehicle id="vehicle_144" type="DEFAULT_VEHTYPE" depart="261.00" departSpeed="5.00" arrival="299.30">
        <route edges="-319929498#3 32038440#11"/>
    </vehicle>

    <vehicle id="vehicle_146" type="DEFAULT_VEHTYPE" depart="264.80" departSpeed="5.00" arrival="300.30">
        <route edges="-319929498#3 -319929498#2"/>
    </vehicle>

    <vehicle id="vehicle_145" type="DEFAULT_VEHTYPE" depart="262.90" departSpeed="5.00" arrival="301.10">
        <route edges="-319929498#3 32038440#11"/>
    </vehicle>

    <vehicle id="vehicle_147" type="DEFAULT_VEHTYPE" depart="266.60" departSpeed="5.00" arrival="302.90">
        <route edges="-319929498#3 32038440#11"/>
    </vehicle>

    <vehicle id="vehicle_149" type="DEFAULT_VEHTYPE" depart="270.20" departSpeed="5.00" arrival="304.80">
        <route edges="-319929498#3 -319929498#2"/>
    </vehicle>

    <vehicle id="vehicle_148" type="DEFAULT_VEHTYPE" depart="268.40" departSpeed="5.00" arrival="304.90">
        <route edges="-319929498#3 32038440#11"/>
    </vehicle>

    <vehicle id="vehicle_150" type="DEFAULT_VEHTYPE" depart="272.00" departSpeed="5.00" arrival="308.30">
        <route edges="-319929498#3 32038440#11"/>
    </vehicle>

    <vehicle id="vehicle_151" type="DEFAULT_VEHTYPE" depart="273.80" departSpeed="5.00" arrival="308.80">
        <route edges="-319929498#3 -319929498#2"/>
    </vehicle>

    <vehicle id="vehicle_152" type="DEFAULT_VEHTYPE" depart="275.60" departSpeed="5.00" arrival="310.20">
        <route edges="-319929498#3 -319929498#2"/>
    </vehicle>

    <vehicle id="vehicle_153" type="DEFAULT_VEHTYPE" depart="277.30" departSpeed="5.00" arrival="312.20">
        <route edges="-319929498#3 -319929498#2"/>
    </vehicle>

    <vehicle id="vehicle_154" type="DEFAULT_VEHTYPE" depart="279.10" departSpeed="5.00" arrival="313.60">
        <route edges="-319929498#3 -319929498#2"/>
    </vehicle>

    <vehicle id="vehicle_155" type="DEFAULT_VEHTYPE" depart="280.80" departSpeed="5.00" arrival="315.20">
        <route edges="-319929498#3 32038440#11"/>
    </vehicle>

    <vehicle id="vehicle_156" type="DEFAULT_VEHTYPE" depart="282.60" departSpeed="5.00" arrival="315.90">
        <route edges="-319929498#3 -319929498#2"/>
    </vehicle>

    <vehicle id="vehicle_157" type="DEFAULT_VEHTYPE" depart="284.30" departSpeed="5.00" arrival="319.30">
        <route edges="-319929498#3 32038440#11"/>
    </vehicle>

    <vehicle id="vehicle_158" type="DEFAULT_VEHTYPE" depart="286.10" departSpeed="5.00" arrival="321.50">
        <route edges="-319929498#3 -319929498#2"/>
    </vehicle>

    <vehicle id="vehicle_159" type="DEFAULT_VEHTYPE" depart="287.90" departSpeed="5.00" arrival="322.90">
        <route edges="-319929498#3 -319929498#2"/>
    </vehicle>

    <vehicle id="vehicle_161" type="DEFAULT_VEHTYPE" depart="291.60" departSpeed="5.00" arrival="325.80">
        <route edges="-319929498#3 -319929498#2"/>
    </vehicle>

    <vehicle id="vehicle_160" type="DEFAULT_VEHTYPE" depart="289.80" departSpeed="5.00" arrival="326.70">
        <route edges="-319929498#3 32038440#11"/>
    </vehicle>

    <vehicle id="vehicle_162" type="DEFAULT_VEHTYPE" depart="293.50" departSpeed="5.00" arrival="327.70">
        <route edges="-319929498#3 -319929498#2"/>
    </vehicle>

    <vehicle id="vehicle_163" type="DEFAULT_VEHTYPE" depart="295.40" departSpeed="5.00" arrival="329.80">
        <route edges="-319929498#3 32038440#11"/>
    </vehicle>

    <vehicle id="vehicle_164" type="DEFAULT_VEHTYPE" depart="297.30" departSpeed="5.00" arrival="332.40">
        <route edges="-319929498#3 32038440#11"/>
    </vehicle>

    <vehicle id="vehicle_165" type="DEFAULT_VEHTYPE" depart="299.20" departSpeed="5.00" arrival="334.30">
        <route edges="-319929498#3 -319929498#2"/>
    </vehicle>

    <vehicle id="vehicle_166" type="DEFAULT_VEHTYPE" depart="301.10" departSpeed="5.00" arrival="335.80">
        <route edges="-319929498#3 -319929498#2"/>
    </vehicle>

    <vehicle id="vehicle_167" type="DEFAULT_VEHTYPE" depart="302.90" departSpeed="5.00" arrival="337.90">
        <route edges="-319929498#3 32038440#11"/>
    </vehicle>

    <vehicle id="vehicle_168" type="DEFAULT_VEHTYPE" depart="304.70" departSpeed="5.00" arrival="340.50">
        <route edges="-319929498#3 32038440#11"/>
    </vehicle>
