<?xml version="1.0" encoding="UTF-8"?>

<!-- generated on 03/01/21 00:51:37 by Eclipse SUMO Version 1.2.0
<configuration xmlns:xsi="http://www.w3.org/2001/XMLSchema-instance" xsi:noNamespaceSchemaLocation="http://sumo.dlr.de/xsd/sumoConfiguration.xsd">

    <input>
        <net-file value="erlangen.net.xml"/>
        <route-files value="density_9v.rou.xml"/>
        <additional-files value="vtypes.add.xml"/>
    </input>

    <output>
        <vehroute-output value="density_9v_routes.xml"/>
    </output>

    <time>
        <begin value="0"/>
        <step-length value="0.1"/>
    </time>

    <report>
        <xml-validation value="never"/>
        <xml-validation.net value="never"/>
        <no-step-log value="true"/>
    </report>

    <gui_only>
        <start value="true"/>
        <tracker-interval value="0.1"/>
    </gui_only>

</configuration>
-->

<routes xmlns:xsi="http://www.w3.org/2001/XMLSchema-instance" xsi:noNamespaceSchemaLocation="http://sumo.dlr.de/xsd/routes_file.xsd">
    <vehicle id="vehicle_0" type="DEFAULT_VEHTYPE" depart="0.00" arrival="26.70">
        <route edges="-319929498#3 -319929498#2"/>
    </vehicle>

    <vehicle id="vehicle_1" type="DEFAULT_VEHTYPE" depart="2.70" arrival="31.90">
        <route edges="-319929498#3 -319929498#2"/>
    </vehicle>

    <vehicle id="vehicle_2" type="DEFAULT_VEHTYPE" depart="5.30" arrival="34.80">
        <route edges="-319929498#3 32038440#11"/>
    </vehicle>

    <vehicle id="vehicle_3" type="DEFAULT_VEHTYPE" depart="7.90" arrival="36.70">
        <route edges="-319929498#3 32038440#11"/>
    </vehicle>

    <vehicle id="vehicle_4" type="DEFAULT_VEHTYPE" depart="10.50" arrival="39.90">
        <route edges="-319929498#3 32038440#11"/>
    </vehicle>

    <vehicle id="vehicle_5" type="DEFAULT_VEHTYPE" depart="13.10" arrival="47.00">
        <route edges="-319929498#3 32038440#11"/>
    </vehicle>

    <vehicle id="vehicle_6" type="DEFAULT_VEHTYPE" depart="15.70" arrival="48.80">
        <route edges="-319929498#3 32038440#11"/>
    </vehicle>

    <vehicle id="vehicle_7" type="DEFAULT_VEHTYPE" depart="18.30" arrival="49.40">
        <route edges="-319929498#3 -319929498#2"/>
    </vehicle>

    <vehicle id="vehicle_8" type="DEFAULT_VEHTYPE" depart="20.90" arrival="52.40">
        <route edges="-319929498#3 32038440#11"/>
    </vehicle>

    <vehicle id="vehicle_9" type="DEFAULT_VEHTYPE" depart="23.60" arrival="55.00">
        <route edges="-319929498#3 -319929498#2"/>
    </vehicle>

    <vehicle id="vehicle_10" type="DEFAULT_VEHTYPE" depart="26.20" arrival="56.50">
        <route edges="-319929498#3 -319929498#2"/>
    </vehicle>

    <vehicle id="vehicle_11" type="DEFAULT_VEHTYPE" depart="28.80" arrival="58.50">
        <route edges="-319929498#3 32038440#11"/>
    </vehicle>

    <vehicle id="vehicle_12" type="DEFAULT_VEHTYPE" depart="31.40" arrival="60.80">
        <route edges="-319929498#3 32038440#11"/>
    </vehicle>

    <vehicle id="vehicle_13" type="DEFAULT_VEHTYPE" depart="34.00" arrival="62.60">
        <route edges="-319929498#3 32038440#11"/>
    </vehicle>

    <vehicle id="vehicle_14" type="DEFAULT_VEHTYPE" depart="36.60" arrival="66.70">
        <route edges="-319929498#3 32038440#11"/>
    </vehicle>

    <vehicle id="vehicle_15" type="DEFAULT_VEHTYPE" depart="39.30" arrival="70.70">
        <route edges="-319929498#3 32038440#11"/>
    </vehicle>

    <vehicle id="vehicle_16" type="DEFAULT_VEHTYPE" depart="41.90" arrival="74.70">
        <route edges="-319929498#3 32038440#11"/>
    </vehicle>

    <vehicle id="vehicle_17" type="DEFAULT_VEHTYPE" depart="44.60" arrival="76.60">
        <route edges="-319929498#3 32038440#11"/>
    </vehicle>

    <vehicle id="vehicle_18" type="DEFAULT_VEHTYPE" depart="47.20" arrival="78.90">
        <route edges="-319929498#3 32038440#11"/>
    </vehicle>

    <vehicle id="vehicle_19" type="DEFAULT_VEHTYPE" depart="49.80" arrival="80.60">
        <route edges="-319929498#3 32038440#11"/>
    </vehicle>

    <vehicle id="vehicle_20" type="DEFAULT_VEHTYPE" depart="52.50" arrival="82.70">
        <route edges="-319929498#3 32038440#11"/>
    </vehicle>

    <vehicle id="vehicle_21" type="DEFAULT_VEHTYPE" depart="55.10" arrival="83.60">
        <route edges="-319929498#3 -319929498#2"/>
    </vehicle>

    <vehicle id="vehicle_22" type="DEFAULT_VEHTYPE" depart="57.70" arrival="87.90">
        <route edges="-319929498#3 32038440#11"/>
    </vehicle>

    <vehicle id="vehicle_23" type="DEFAULT_VEHTYPE" depart="60.30" arrival="92.60">
        <route edges="-319929498#3 32038440#11"/>
    </vehicle>

    <vehicle id="vehicle_24" type="DEFAULT_VEHTYPE" depart="62.90" arrival="97.30">
        <route edges="-319929498#3 32038440#11"/>
    </vehicle>

    <vehicle id="vehicle_25" type="DEFAULT_VEHTYPE" depart="65.50" arrival="97.40">
        <route edges="-319929498#3 -319929498#2"/>
    </vehicle>

    <vehicle id="vehicle_26" type="DEFAULT_VEHTYPE" depart="68.10" arrival="99.00">
        <route edges="-319929498#3 -319929498#2"/>
    </vehicle>

    <vehicle id="vehicle_27" type="DEFAULT_VEHTYPE" depart="70.80" arrival="100.50">
        <route edges="-319929498#3 -319929498#2"/>
    </vehicle>

    <vehicle id="vehicle_28" type="DEFAULT_VEHTYPE" depart="73.50" arrival="101.90">
        <route edges="-319929498#3 32038440#11"/>
    </vehicle>

    <vehicle id="vehicle_29" type="DEFAULT_VEHTYPE" depart="76.10" arrival="105.50">
        <route edges="-319929498#3 -319929498#2"/>
    </vehicle>

    <vehicle id="vehicle_30" type="DEFAULT_VEHTYPE" depart="78.70" arrival="106.90">
        <route edges="-319929498#3 -319929498#2"/>
    </vehicle>

    <vehicle id="vehicle_31" type="DEFAULT_VEHTYPE" depart="81.30" arrival="108.30">
        <route edges="-319929498#3 -319929498#2"/>
    </vehicle>

    <vehicle id="vehicle_32" type="DEFAULT_VEHTYPE" depart="83.90" arrival="111.40">
        <route edges="-319929498#3 -319929498#2"/>
    </vehicle>

    <vehicle id="vehicle_33" type="DEFAULT_VEHTYPE" depart="86.50" arrival="113.70">
        <route edges="-319929498#3 32038440#11"/>
    </vehicle>

    <vehicle id="vehicle_34" type="DEFAULT_VEHTYPE" depart="89.10" arrival="119.00">
        <route edges="-319929498#3 32038440#11"/>
    </vehicle>

    <vehicle id="vehicle_35" type="DEFAULT_VEHTYPE" depart="91.70" arrival="119.70">
        <route edges="-319929498#3 -319929498#2"/>
    </vehicle>

    <vehicle id="vehicle_36" type="DEFAULT_VEHTYPE" depart="94.40" arrival="122.80">
        <route edges="-319929498#3 -319929498#2"/>
    </vehicle>

    <vehicle id="vehicle_37" type="DEFAULT_VEHTYPE" depart="97.00" arrival="124.70">
        <route edges="-319929498#3 32038440#11"/>
    </vehicle>

    <vehicle id="vehicle_38" type="DEFAULT_VEHTYPE" depart="99.70" arrival="128.10">
        <route edges="-319929498#3 32038440#11"/>
    </vehicle>

    <vehicle id="vehicle_39" type="DEFAULT_VEHTYPE" depart="102.40" arrival="132.60">
        <route edges="-319929498#3 -319929498#2"/>
    </vehicle>

    <vehicle id="vehicle_40" type="DEFAULT_VEHTYPE" depart="105.10" arrival="134.00">
        <route edges="-319929498#3 -319929498#2"/>
    </vehicle>

    <vehicle id="vehicle_42" type="DEFAULT_VEHTYPE" depart="110.40" arrival="138.30">
        <route edges="-319929498#3 -319929498#2"/>
    </vehicle>

    <vehicle id="vehicle_41" type="DEFAULT_VEHTYPE" depart="107.70" arrival="138.50">
        <route edges="-319929498#3 32038440#11"/>
    </vehicle>

    <vehicle id="vehicle_43" type="DEFAULT_VEHTYPE" depart="113.10" arrival="142.30">
        <route edges="-319929498#3 32038440#11"/>
    </vehicle>

    <vehicle id="vehicle_44" type="DEFAULT_VEHTYPE" depart="115.70" arrival="145.00">
        <route edges="-319929498#3 32038440#11"/>
    </vehicle>

    <vehicle id="vehicle_45" type="DEFAULT_VEHTYPE" depart="118.30" arrival="147.20">
        <route edges="-319929498#3 32038440#11"/>
    </vehicle>

    <vehicle id="vehicle_46" type="DEFAULT_VEHTYPE" depart="120.90" arrival="149.00">
        <route edges="-319929498#3 -319929498#2"/>
    </vehicle>

    <vehicle id="vehicle_47" type="DEFAULT_VEHTYPE" depart="123.50" arrival="153.70">
        <route edges="-319929498#3 -319929498#2"/>
    </vehicle>

    <vehicle id="vehicle_48" type="DEFAULT_VEHTYPE" depart="126.20" arrival="158.90">
        <route edges="-319929498#3 32038440#11"/>
    </vehicle>

    <vehicle id="vehicle_49" type="DEFAULT_VEHTYPE" depart="128.80" arrival="160.40">
        <route edges="-319929498#3 -319929498#2"/>
    </vehicle>

    <vehicle id="vehicle_50" type="DEFAULT_VEHTYPE" depart="131.40" arrival="164.80">
        <route edges="-319929498#3 32038440#11"/>
    </vehicle>

    <vehicle id="vehicle_51" type="DEFAULT_VEHTYPE" depart="134.00" arrival="166.50">
        <route edges="-319929498#3 32038440#11"/>
    </vehicle>

    <vehicle id="vehicle_53" type="DEFAULT_VEHTYPE" depart="139.20" arrival="167.90">
        <route edges="-319929498#3 -319929498#2"/>
    </vehicle>

    <vehicle id="vehicle_52" type="DEFAULT_VEHTYPE" depart="136.60" arrival="168.40">
        <route edges="-319929498#3 32038440#11"/>
    </vehicle>

    <vehicle id="vehicle_54" type="DEFAULT_VEHTYPE" depart="141.90" arrival="170.10">
        <route edges="-319929498#3 -319929498#2"/>
    </vehicle>

    <vehicle id="vehicle_55" type="DEFAULT_VEHTYPE" depart="144.60" arrival="174.40">
        <route edges="-319929498#3 32038440#11"/>
    </vehicle>

    <vehicle id="vehicle_57" type="DEFAULT_VEHTYPE" depart="149.90" arrival="178.40">
        <route edges="-319929498#3 -319929498#2"/>
    </vehicle>

    <vehicle id="vehicle_56" type="DEFAULT_VEHTYPE" depart="147.20" arrival="179.40">
        <route edges="-319929498#3 32038440#11"/>
    </vehicle>

    <vehicle id="vehicle_58" type="DEFAULT_VEHTYPE" depart="152.50" arrival="180.60">
        <route edges="-319929498#3 -319929498#2"/>
    </vehicle>

    <vehicle id="vehicle_59" type="DEFAULT_VEHTYPE" depart="155.10" arrival="183.70">
        <route edges="-319929498#3 -319929498#2"/>
    </vehicle>

    <vehicle id="vehicle_60" type="DEFAULT_VEHTYPE" depart="157.70" arrival="185.10">
        <route edges="-319929498#3 -319929498#2"/>
    </vehicle>

    <vehicle id="vehicle_61" type="DEFAULT_VEHTYPE" depart="160.30" arrival="188.00">
        <route edges="-319929498#3 32038440#11"/>
    </vehicle>

    <vehicle id="vehicle_62" type="DEFAULT_VEHTYPE" depart="163.00" arrival="192.50">
        <route edges="-319929498#3 32038440#11"/>
    </vehicle>

    <vehicle id="vehicle_63" type="DEFAULT_VEHTYPE" depart="165.60" arrival="195.80">
        <route edges="-319929498#3 32038440#11"/>
    </vehicle>

    <vehicle id="vehicle_64" type="DEFAULT_VEHTYPE" depart="168.30" arrival="197.50">
        <route edges="-319929498#3 -319929498#2"/>
    </vehicle>

    <vehicle id="vehicle_65" type="DEFAULT_VEHTYPE" depart="171.00" arrival="201.60">
        <route edges="-319929498#3 -319929498#2"/>
    </vehicle>

    <vehicle id="vehicle_66" type="DEFAULT_VEHTYPE" depart="173.60" arrival="203.60">
        <route edges="-319929498#3 -319929498#2"/>
    </vehicle>

    <vehicle id="vehicle_68" type="DEFAULT_VEHTYPE" depart="179.00" arrival="207.80">
        <route edges="-319929498#3 -319929498#2"/>
    </vehicle>

    <vehicle id="vehicle_67" type="DEFAULT_VEHTYPE" depart="176.30" arrival="208.00">
        <route edges="-319929498#3 32038440#11"/>
    </vehicle>

    <vehicle id="vehicle_69" type="DEFAULT_VEHTYPE" depart="181.70" arrival="209.50">
        <route edges="-319929498#3 -319929498#2"/>
    </vehicle>

    <vehicle id="vehicle_70" type="DEFAULT_VEHTYPE" depart="184.40" arrival="211.80">
        <route edges="-319929498#3 -319929498#2"/>
    </vehicle>

    <vehicle id="vehicle_71" type="DEFAULT_VEHTYPE" depart="187.00" arrival="215.30">
        <route edges="-319929498#3 -319929498#2"/>
    </vehicle>

    <vehicle id="vehicle_72" type="DEFAULT_VEHTYPE" depart="189.60" arrival="218.70">
        <route edges="-319929498#3 -319929498#2"/>
    </vehicle>

    <vehicle id="vehicle_73" type="DEFAULT_VEHTYPE" depart="192.20" arrival="220.20">
        <route edges="-319929498#3 -319929498#2"/>
    </vehicle>

    <vehicle id="vehicle_74" type="DEFAULT_VEHTYPE" depart="194.80" arrival="223.50">
        <route edges="-319929498#3 -319929498#2"/>
    </vehicle>

    <vehicle id="vehicle_75" type="DEFAULT_VEHTYPE" depart="197.40" arrival="225.60">
        <route edges="-319929498#3 -319929498#2"/>
    </vehicle>

    <vehicle id="vehicle_76" type="DEFAULT_VEHTYPE" depart="200.10" arrival="229.20">
        <route edges="-319929498#3 32038440#11"/>
    </vehicle>

    <vehicle id="vehicle_77" type="DEFAULT_VEHTYPE" depart="202.70" arrival="231.00">
        <route edges="-319929498#3 -319929498#2"/>
    </vehicle>

    <vehicle id="vehicle_78" type="DEFAULT_VEHTYPE" depart="205.40" arrival="235.00">
        <route edges="-319929498#3 32038440#11"/>
    </vehicle>

    <vehicle id="vehicle_79" type="DEFAULT_VEHTYPE" depart="208.00" arrival="236.80">
        <route edges="-319929498#3 32038440#11"/>
    </vehicle>

    <vehicle id="vehicle_80" type="DEFAULT_VEHTYPE" depart="210.60" arrival="238.20">
        <route edges="-319929498#3 -319929498#2"/>
    </vehicle>

    <vehicle id="vehicle_81" type="DEFAULT_VEHTYPE" depart="213.30" arrival="241.10">
        <route edges="-319929498#3 -319929498#2"/>
    </vehicle>

    <vehicle id="vehicle_82" type="DEFAULT_VEHTYPE" depart="215.90" arrival="243.40">
        <route edges="-319929498#3 -319929498#2"/>
    </vehicle>

    <vehicle id="vehicle_83" type="DEFAULT_VEHTYPE" depart="218.60" arrival="249.00">
        <route edges="-319929498#3 32038440#11"/>
    </vehicle>

    <vehicle id="vehicle_84" type="DEFAULT_VEHTYPE" depart="221.20" arrival="250.70">
        <route edges="-319929498#3 32038440#11"/>
    </vehicle>

    <vehicle id="vehicle_85" type="DEFAULT_VEHTYPE" depart="223.80" arrival="252.30">
        <route edges="-319929498#3 -319929498#2"/>
    </vehicle>

    <vehicle id="vehicle_86" type="DEFAULT_VEHTYPE" depart="226.40" arrival="254.20">
        <route edges="-319929498#3 -319929498#2"/>
    </vehicle>

    <vehicle id="vehicle_87" type="DEFAULT_VEHTYPE" depart="229.10" arrival="256.20">
        <route edges="-319929498#3 -319929498#2"/>
    </vehicle>

    <vehicle id="vehicle_88" type="DEFAULT_VEHTYPE" depart="231.80" arrival="259.50">
        <route edges="-319929498#3 -319929498#2"/>
    </vehicle>

    <vehicle id="vehicle_89" type="DEFAULT_VEHTYPE" depart="234.40" arrival="261.60">
        <route edges="-319929498#3 -319929498#2"/>
    </vehicle>

    <vehicle id="vehicle_90" type="DEFAULT_VEHTYPE" depart="236.90" arrival="264.30">
        <route edges="-319929498#3 -319929498#2"/>
    </vehicle>

    <vehicle id="vehicle_91" type="DEFAULT_VEHTYPE" depart="239.50" arrival="271.90">
        <route edges="-319929498#3 32038440#11"/>
    </vehicle>

    <vehicle id="vehicle_92" type="DEFAULT_VEHTYPE" depart="242.10" arrival="276.10">
        <route edges="-319929498#3 32038440#11"/>
    </vehicle>

    <vehicle id="vehicle_93" type="DEFAULT_VEHTYPE" depart="244.70" arrival="278.00">
        <route edges="-319929498#3 32038440#11"/>
    </vehicle>

    <vehicle id="vehicle_95" type="DEFAULT_VEHTYPE" depart="250.00" arrival="279.20">
        <route edges="-319929498#3 -319929498#2"/>
    </vehicle>

    <vehicle id="vehicle_94" type="DEFAULT_VEHTYPE" depart="247.40" arrival="279.80">
        <route edges="-319929498#3 32038440#11"/>
    </vehicle>

    <vehicle id="vehicle_96" type="DEFAULT_VEHTYPE" depart="252.60" arrival="281.00">
        <route edges="-319929498#3 -319929498#2"/>
    </vehicle>

    <vehicle id="vehicle_97" type="DEFAULT_VEHTYPE" depart="255.20" arrival="285.20">
        <route edges="-319929498#3 -319929498#2"/>
    </vehicle>

    <vehicle id="vehicle_98" type="DEFAULT_VEHTYPE" depart="257.80" arrival="286.70">
        <route edges="-319929498#3 -319929498#2"/>
    </vehicle>

    <vehicle id="vehicle_99" type="DEFAULT_VEHTYPE" depart="260.40" arrival="288.80">
        <route edges="-319929498#3 32038440#11"/>
    </vehicle>

    <vehicle id="vehicle_100" type="DEFAULT_VEHTYPE" depart="263.10" arrival="291.90">
        <route edges="-319929498#3 32038440#11"/>
    </vehicle>

    <vehicle id="vehicle_101" type="DEFAULT_VEHTYPE" depart="265.70" arrival="296.40">
        <route edges="-319929498#3 32038440#11"/>
    </vehicle>

    <vehicle id="vehicle_102" type="DEFAULT_VEHTYPE" depart="268.30" arrival="297.20">
        <route edges="-319929498#3 -319929498#2"/>
    </vehicle>

    <vehicle id="vehicle_103" type="DEFAULT_VEHTYPE" depart="271.00" arrival="299.90">
        <route edges="-319929498#3 -319929498#2"/>
    </vehicle>

    <vehicle id="vehicle_104" type="DEFAULT_VEHTYPE" depart="273.60" arrival="306.00">
        <route edges="-319929498#3 32038440#11"/>
    </vehicle>

    <vehicle id="vehicle_105" type="DEFAULT_VEHTYPE" depart="276.20" arrival="307.70">
        <route edges="-319929498#3 32038440#11"/>
    </vehicle>

    <vehicle id="vehicle_106" type="DEFAULT_VEHTYPE" depart="278.80" arrival="307.90">
        <route edges="-319929498#3 -319929498#2"/>
    </vehicle>

    <vehicle id="vehicle_107" type="DEFAULT_VEHTYPE" depart="281.40" arrival="311.10">
        <route edges="-319929498#3 32038440#11"/>
    </vehicle>

    <vehicle id="vehicle_108" type="DEFAULT_VEHTYPE" depart="284.00" arrival="311.70">
        <route edges="-319929498#3 -319929498#2"/>
    </vehicle>

    <vehicle id="vehicle_109" type="DEFAULT_VEHTYPE" depart="286.60" arrival="315.40">
        <route edges="-319929498#3 -319929498#2"/>
    </vehicle>

    <vehicle id="vehicle_110" type="DEFAULT_VEHTYPE" depart="289.20" arrival="320.50">
        <route edges="-319929498#3 32038440#11"/>
    </vehicle>

    <vehicle id="vehicle_111" type="DEFAULT_VEHTYPE" depart="291.80" arrival="322.90">
        <route edges="-319929498#3 -319929498#2"/>
    </vehicle>

    <vehicle id="vehicle_112" type="DEFAULT_VEHTYPE" depart="294.40" arrival="324.20">
        <route edges="-319929498#3 32038440#11"/>
    </vehicle>

    <vehicle id="vehicle_113" type="DEFAULT_VEHTYPE" depart="297.00" arrival="325.70">
        <route edges="-319929498#3 -319929498#2"/>
    </vehicle>

    <vehicle id="vehicle_114" type="DEFAULT_VEHTYPE" depart="299.70" arrival="327.10">
        <route edges="-319929498#3 -319929498#2"/>
    </vehicle>

    <vehicle id="vehicle_115" type="DEFAULT_VEHTYPE" depart="302.30" arrival="333.60">
        <route edges="-319929498#3 32038440#11"/>
    </vehicle>

    <vehicle id="vehicle_116" type="DEFAULT_VEHTYPE" depart="304.90" arrival="335.30">
        <route edges="-319929498#3 32038440#11"/>
    </vehicle>

    <vehicle id="vehicle_117" type="DEFAULT_VEHTYPE" depart="307.60" arrival="336.00">
        <route edges="-319929498#3 -319929498#2"/>
    </vehicle>

    <vehicle id="vehicle_118" type="DEFAULT_VEHTYPE" depart="310.30" arrival="338.30">
        <route edges="-319929498#3 -319929498#2"/>
    </vehicle>

    <vehicle id="vehicle_119" type="DEFAULT_VEHTYPE" depart="312.90" arrival="341.40">
        <route edges="-319929498#3 32038440#11"/>
    </vehicle>

    <vehicle id="vehicle_120" type="DEFAULT_VEHTYPE" depart="315.60" arrival="344.80">
        <route edges="-319929498#3 -319929498#2"/>
    </vehicle>

    <vehicle id="vehicle_121" type="DEFAULT_VEHTYPE" depart="318.30" arrival="346.90">
        <route edges="-319929498#3 32038440#11"/>
    </vehicle>

    <vehicle id="vehicle_122" type="DEFAULT_VEHTYPE" depart="320.90" arrival="348.60">
        <route edges="-319929498#3 -319929498#2"/>
    </vehicle>

    <vehicle id="vehicle_123" type="DEFAULT_VEHTYPE" depart="323.60" arrival="350.90">
        <route edges="-319929498#3 -319929498#2"/>
    </vehicle>

    <vehicle id="vehicle_124" type="DEFAULT_VEHTYPE" depart="326.20" arrival="352.70">
        <route edges="-319929498#3 -319929498#2"/>
    </vehicle>

    <vehicle id="vehicle_125" type="DEFAULT_VEHTYPE" depart="328.80" arrival="356.10">
        <route edges="-319929498#3 32038440#11"/>
    </vehicle>

    <vehicle id="vehicle_126" type="DEFAULT_VEHTYPE" depart="331.50" arrival="358.70">
        <route edges="-319929498#3 -319929498#2"/>
    </vehicle>

    <vehicle id="vehicle_127" type="DEFAULT_VEHTYPE" depart="334.20" arrival="366.60">
        <route edges="-319929498#3 -319929498#2"/>
    </vehicle>

    <vehicle id="vehicle_128" type="DEFAULT_VEHTYPE" depart="336.80" arrival="367.10">
        <route edges="-319929498#3 32038440#11"/>
    </vehicle>

    <vehicle id="vehicle_129" type="DEFAULT_VEHTYPE" depart="339.40" arrival="368.80">
        <route edges="-319929498#3 -319929498#2"/>
    </vehicle>

    <vehicle id="vehicle_130" type="DEFAULT_VEHTYPE" depart="342.00" arrival="371.90">
        <route edges="-319929498#3 32038440#11"/>
    </vehicle>

    <vehicle id="vehicle_131" type="DEFAULT_VEHTYPE" depart="344.70" arrival="372.50">
        <route edges="-319929498#3 -319929498#2"/>
    </vehicle>

    <vehicle id="vehicle_132" type="DEFAULT_VEHTYPE" depart="347.30" arrival="377.80">
        <route edges="-319929498#3 32038440#11"/>
    </vehicle>

    <vehicle id="vehicle_133" type="DEFAULT_VEHTYPE" depart="349.90" arrival="378.10">
        <route edges="-319929498#3 -319929498#2"/>
    </vehicle>

    <vehicle id="vehicle_134" type="DEFAULT_VEHTYPE" depart="352.50" arrival="379.40">
        <route edges="-319929498#3 -319929498#2"/>
    </vehicle>

    <vehicle id="vehicle_135" type="DEFAULT_VEHTYPE" depart="355.20" arrival="382.70">
        <route edges="-319929498#3 -319929498#2"/>
    </vehicle>

    <vehicle id="vehicle_136" type="DEFAULT_VEHTYPE" depart="357.80" arrival="384.20">
        <route edges="-319929498#3 -319929498#2"/>
    </vehicle>

    <vehicle id="vehicle_137" type="DEFAULT_VEHTYPE" depart="360.50" arrival="389.90">
        <route edges="-319929498#3 32038440#11"/>
    </vehicle>

    <vehicle id="vehicle_138" type="DEFAULT_VEHTYPE" depart="363.10" arrival="391.10">
        <route edges="-319929498#3 -319929498#2"/>
    </vehicle>

    <vehicle id="vehicle_139" type="DEFAULT_VEHTYPE" depart="365.80" arrival="394.80">
        <route edges="-319929498#3 -319929498#2"/>
    </vehicle>

    <vehicle id="vehicle_140" type="DEFAULT_VEHTYPE" depart="368.40" arrival="397.00">
        <route edges="-319929498#3 32038440#11"/>
    </vehicle>

    <vehicle id="vehicle_141" type="DEFAULT_VEHTYPE" depart="371.00" arrival="397.60">
        <route edges="-319929498#3 -319929498#2"/>
    </vehicle>

    <vehicle id="vehicle_142" type="DEFAULT_VEHTYPE" depart="373.60" arrival="402.80">
        <route edges="-319929498#3 -319929498#2"/>
    </vehicle>

    <vehicle id="vehicle_143" type="DEFAULT_VEHTYPE" depart="376.30" arrival="404.30">
        <route edges="-319929498#3 -319929498#2"/>
    </vehicle>

    <vehicle id="vehicle_144" type="DEFAULT_VEHTYPE" depart="378.90" arrival="416.70">
        <route edges="-319929498#3 32038440#11"/>
    </vehicle>

    <vehicle id="vehicle_145" type="DEFAULT_VEHTYPE" depart="381.60" arrival="418.50">
        <route edges="-319929498#3 32038440#11"/>
    </vehicle>

    <vehicle id="vehicle_146" type="DEFAULT_VEHTYPE" depart="384.20" arrival="420.50">
        <route edges="-319929498#3 32038440#11"/>
    </vehicle>

    <vehicle id="vehicle_147" type="DEFAULT_VEHTYPE" depart="386.90" arrival="422.30">
        <route edges="-319929498#3 32038440#11"/>
    </vehicle>

    <vehicle id="vehicle_149" type="DEFAULT_VEHTYPE" depart="392.10" arrival="423.40">
        <route edges="-319929498#3 -319929498#2"/>
    </vehicle>

    <vehicle id="vehicle_148" type="DEFAULT_VEHTYPE" depart="389.50" arrival="424.20">
        <route edges="-319929498#3 32038440#11"/>
    </vehicle>

    <vehicle id="vehicle_150" type="DEFAULT_VEHTYPE" depart="394.70" arrival="425.30">
        <route edges="-319929498#3 -319929498#2"/>
    </vehicle>

    <vehicle id="vehicle_151" type="DEFAULT_VEHTYPE" depart="397.40" arrival="428.20">
        <route edges="-319929498#3 32038440#11"/>
    </vehicle>

    <vehicle id="vehicle_152" type="DEFAULT_VEHTYPE" depart="400.10" arrival="428.60">
        <route edges="-319929498#3 -319929498#2"/>
    </vehicle>

    <vehicle id="vehicle_154" type="DEFAULT_VEHTYPE" depart="405.30" arrival="433.80">
        <route edges="-319929498#3 -319929498#2"/>
    </vehicle>

    <vehicle id="vehicle_153" type="DEFAULT_VEHTYPE" depart="402.70" arrival="434.10">
        <route edges="-319929498#3 32038440#11"/>
    </vehicle>

    <vehicle id="vehicle_155" type="DEFAULT_VEHTYPE" depart="408.00" arrival="436.50">
        <route edges="-319929498#3 32038440#11"/>
    </vehicle>

    <vehicle id="vehicle_156" type="DEFAULT_VEHTYPE" depart="410.50" arrival="437.10">
        <route edges="-319929498#3 -319929498#2"/>
    </vehicle>

    <vehicle id="vehicle_157" type="DEFAULT_VEHTYPE" depart="413.10" arrival="441.40">
        <route edges="-319929498#3 32038440#11"/>
    </vehicle>

    <vehicle id="vehicle_158" type="DEFAULT_VEHTYPE" depart="415.70" arrival="445.60">
        <route edges="-319929498#3 -319929498#2"/>
    </vehicle>

    <vehicle id="vehicle_159" type="DEFAULT_VEHTYPE" depart="418.30" arrival="447.00">
        <route edges="-319929498#3 -319929498#2"/>
    </vehicle>

    <vehicle id="vehicle_161" type="DEFAULT_VEHTYPE" depart="423.50" arrival="452.70">
        <route edges="-319929498#3 -319929498#2"/>
    </vehicle>

    <vehicle id="vehicle_160" type="DEFAULT_VEHTYPE" depart="420.90" arrival="453.60">
        <route edges="-319929498#3 32038440#11"/>
    </vehicle>

    <vehicle id="vehicle_162" type="DEFAULT_VEHTYPE" depart="426.20" arrival="454.80">
        <route edges="-319929498#3 -319929498#2"/>
    </vehicle>

    <vehicle id="vehicle_163" type="DEFAULT_VEHTYPE" depart="428.90" arrival="456.30">
        <route edges="-319929498#3 -319929498#2"/>
    </vehicle>

    <vehicle id="vehicle_164" type="DEFAULT_VEHTYPE" depart="431.50" arrival="460.20">
        <route edges="-319929498#3 32038440#11"/>
    </vehicle>

    <vehicle id="vehicle_165" type="DEFAULT_VEHTYPE" depart="434.20" arrival="465.90">
        <route edges="-319929498#3 32038440#11"/>
    </vehicle>

    <vehicle id="vehicle_166" type="DEFAULT_VEHTYPE" depart="436.90" arrival="465.90">
        <route edges="-319929498#3 -319929498#2"/>
    </vehicle>

    <vehicle id="vehicle_167" type="DEFAULT_VEHTYPE" depart="439.50" arrival="467.50">
        <route edges="-319929498#3 -319929498#2"/>
    </vehicle>

    <vehicle id="vehicle_168" type="DEFAULT_VEHTYPE" depart="442.10" arrival="470.20">
        <route edges="-319929498#3 -319929498#2"/>
    </vehicle>

    <vehicle id="vehicle_169" type="DEFAULT_VEHTYPE" depart="444.70" arrival="475.80">
        <route edges="-319929498#3 32038440#11"/>
    </vehicle>

    <vehicle id="vehicle_170" type="DEFAULT_VEHTYPE" depart="447.30" arrival="477.60">
        <route edges="-319929498#3 32038440#11"/>
    </vehicle>

    <vehicle id="vehicle_171" type="DEFAULT_VEHTYPE" depart="449.90" arrival="482.00">
        <route edges="-319929498#3 32038440#11"/>
    </vehicle>

    <vehicle id="vehicle_172" type="DEFAULT_VEHTYPE" depart="452.50" arrival="483.00">
        <route edges="-319929498#3 -319929498#2"/>
    </vehicle>

    <vehicle id="vehicle_173" type="DEFAULT_VEHTYPE" depart="455.10" arrival="484.50">
        <route edges="-319929498#3 -319929498#2"/>
    </vehicle>

    <vehicle id="vehicle_174" type="DEFAULT_VEHTYPE" depart="457.70" arrival="488.50">
        <route edges="-319929498#3 32038440#11"/>
    </vehicle>

    <vehicle id="vehicle_176" type="DEFAULT_VEHTYPE" depart="463.00" arrival="491.60">
        <route edges="-319929498#3 -319929498#2"/>
    </vehicle>

    <vehicle id="vehicle_175" type="DEFAULT_VEHTYPE" depart="460.40" arrival="492.00">
        <route edges="-319929498#3 32038440#11"/>
    </vehicle>

    <vehicle id="vehicle_177" type="DEFAULT_VEHTYPE" depart="465.60" arrival="495.30">
        <route edges="-319929498#3 32038440#11"/>
    </vehicle>

    <vehicle id="vehicle_178" type="DEFAULT_VEHTYPE" depart="468.20" arrival="497.30">
        <route edges="-319929498#3 32038440#11"/>
    </vehicle>

    <vehicle id="vehicle_179" type="DEFAULT_VEHTYPE" depart="470.90" arrival="500.00">
        <route edges="-319929498#3 32038440#11"/>
    </vehicle>

    <vehicle id="vehicle_180" type="DEFAULT_VEHTYPE" depart="473.60" arrival="502.30">
        <route edges="-319929498#3 32038440#11"/>
    </vehicle>

    <vehicle id="vehicle_181" type="DEFAULT_VEHTYPE" depart="476.20" arrival="505.80">
        <route edges="-319929498#3 32038440#11"/>
    </vehicle>

    <vehicle id="vehicle_182" type="DEFAULT_VEHTYPE" depart="478.90" arrival="508.40">
        <route edges="-319929498#3 32038440#11"/>
    </vehicle>

    <vehicle id="vehicle_183" type="DEFAULT_VEHTYPE" depart="481.50" arrival="509.00">
        <route edges="-319929498#3 -319929498#2"/>
    </vehicle>

    <vehicle id="vehicle_184" type="DEFAULT_VEHTYPE" depart="484.10" arrival="515.10">
        <route edges="-319929498#3 32038440#11"/>
    </vehicle>

    <vehicle id="vehicle_185" type="DEFAULT_VEHTYPE" depart="486.70" arrival="516.50">
        <route edges="-319929498#3 -319929498#2"/>
    </vehicle>

    <vehicle id="vehicle_186" type="DEFAULT_VEHTYPE" depart="489.30" arrival="518.00">
        <route edges="-319929498#3 -319929498#2"/>
    </vehicle>

    <vehicle id="vehicle_187" type="DEFAULT_VEHTYPE" depart="491.90" arrival="524.10">
        <route edges="-319929498#3 32038440#11"/>
    </vehicle>

    <vehicle id="vehicle_188" type="DEFAULT_VEHTYPE" depart="494.50" arrival="524.10">
        <route edges="-319929498#3 -319929498#2"/>
    </vehicle>

    <vehicle id="vehicle_189" type="DEFAULT_VEHTYPE" depart="497.20" arrival="527.70">
        <route edges="-319929498#3 32038440#11"/>
    </vehicle>
