<?xml version="1.0" encoding="UTF-8"?>

<!-- generated on 03/01/21 21:50:19 by Eclipse SUMO Version 1.2.0
<configuration xmlns:xsi="http://www.w3.org/2001/XMLSchema-instance" xsi:noNamespaceSchemaLocation="http://sumo.dlr.de/xsd/sumoConfiguration.xsd">

    <input>
        <net-file value="erlangen.net.xml"/>
        <route-files value="density_7vSpeed.rou.xml"/>
        <additional-files value="vtypes.add.xml"/>
    </input>

    <output>
        <vehroute-output value="density_7vSpeed_routes.xml"/>
    </output>

    <time>
        <begin value="0"/>
        <step-length value="0.1"/>
    </time>

    <report>
        <xml-validation value="never"/>
        <xml-validation.net value="never"/>
        <no-step-log value="true"/>
    </report>

    <gui_only>
        <start value="true"/>
        <tracker-interval value="0.1"/>
    </gui_only>

</configuration>
-->

<routes xmlns:xsi="http://www.w3.org/2001/XMLSchema-instance" xsi:noNamespaceSchemaLocation="http://sumo.dlr.de/xsd/routes_file.xsd">
</routes>
